# Time	Input
-4.6998067	0.0000000
-4.6000676	0.0000000
-4.4997691	0.0000000
-4.3999672	0.0000000
-4.2999603	0.0000000
-4.2000438	0.0000000
-4.1000051	0.0000000
-4.0000236	0.0000000
-3.9000922	0.0000000
-3.8000187	0.0000000
-3.6999936	0.0000000
-3.5999654	0.0000000
-3.5000978	0.0000000
-3.3999268	0.0000000
-3.3000343	0.0000000
-3.1999708	0.0000000
-3.1000906	0.0000000
-2.9999933	0.0000000
-2.9000207	0.0000000
-2.7998973	0.0000000
-2.7000566	0.0000000
-2.5999644	0.0000000
-2.4999301	0.0000000
-2.4000202	0.0000000
-2.2999665	0.0000000
-2.2000189	0.0000000
-2.0998953	0.0000000
-1.9999409	0.0000000
-1.9000530	0.0000000
-1.8000689	0.0000000
-1.7000492	0.0000000
-1.5999724	0.0000000
-1.5000732	0.0000000
-1.4000008	0.0000000
-1.3001472	0.0000000
-1.1998472	0.0000000
-1.1000489	0.0000000
-0.9999657	0.0000000
-0.9000712	0.0000000
-0.8000166	0.0000000
-0.6999821	0.0000000
-0.5999946	0.0000000
-0.5000479	0.0000000
-0.4000617	0.0000000
-0.3001216	0.0000000
-0.2000870	0.0000000
-0.0999572	0.0000000
0.0000000	2.3123448
0.1000479	2.7710762
0.2000236	2.5570397
0.3000097	1.3337609
0.3998280	1.7069383
0.4999560	2.1192086
0.5999972	2.3421421
0.6999854	2.3029943
0.7999700	2.1206293
0.8999588	2.1574433
1.0000492	2.9539769
1.1001526	4.0724516
1.1999854	5.2150712
1.2999836	5.7789907
1.4000963	5.3715177
1.5000384	4.3116598
1.5999601	3.1972508
1.6999626	3.2399607
1.7999729	3.5993640
1.9000003	3.9875896
2.0000031	4.1755257
2.0999135	3.8133569
2.2001705	2.7933702
2.2999916	1.7649409
2.4000760	2.0839219
2.4999340	3.6396666
2.5999324	5.8180184
2.7000492	6.6719470
2.8002289	6.6424632
2.8999688	5.1961455
2.9999096	3.9939137
3.0999411	3.1430759
3.1999480	3.0200455
3.2999373	3.4114461
3.3999631	4.4602075
3.4999209	5.7950497
3.5999176	5.9891791
3.7000694	5.6177998
3.7999199	5.4131174
3.8998769	5.5125551
3.9999951	5.7386060
4.0999805	5.9763155
4.1999867	5.6316071
4.3000018	4.7476196
4.3999864	4.2330432
4.4998733	3.7950687
4.5999104	3.7118866
4.7000236	4.2703953
4.7999654	4.8815861
4.8999826	5.4043322
5.0000084	6.0908098
5.0999437	6.7593031
5.1999752	7.2441831
5.3000553	7.8396478
5.4000740	7.8262315
5.4999176	6.8831530
5.5999895	5.4962134
5.6998717	4.1989131
5.8000061	3.3886230
5.8998989	3.3455081
5.9999009	4.2623768
6.0999421	5.6905322
6.2000660	7.4485540
6.3002084	8.3245258
6.3999788	8.7001858
6.5001416	8.0752764
6.5999478	7.4940963
6.7001288	7.3667140
6.7999363	7.9473748
6.8999439	9.0041132
6.9998894	9.4940042
7.0998444	9.5391064
7.1998843	9.2979956
7.3000276	8.9238234
7.3999265	8.3374548
7.4999795	7.9439735
7.5999429	7.7238550
7.7000474	7.9930854
7.7999524	8.4644928
7.9000870	9.0683031
7.9999854	9.9855232
8.0999685	10.5931034
8.1999055	11.2031393
8.2999186	11.4546127
8.3999939	11.3450422
8.4999557	10.8826981
8.6001587	10.6460829
8.7001728	10.3158054
8.7998851	10.2967243
8.8999444	10.3669567
8.9999398	10.6435614
9.1000054	10.9344397
9.2000097	11.3015652
9.2999660	11.4182081
9.4000456	11.7808199
9.4999086	11.8446751
9.5999585	11.8498774
9.6998889	11.3640614
9.7999334	10.7687626
9.8999014	10.6263752
9.9999393	10.6372547
10.1000236	10.7039938
10.1999729	11.2577248
10.2999887	12.0130425
10.3998403	12.5018492
10.4999572	13.0797787
10.6000310	13.2044449
10.7000712	12.8623676
10.8000911	12.2992735
10.9001052	12.0860558
11.0000056	12.1135559
11.0998748	12.3738985
11.1999706	12.8758230
11.3000568	13.1749811
11.3998784	13.4716530
11.5000364	13.7507639
11.6000645	13.7335482
11.7000141	13.4619026
11.7999895	13.0283356
11.8999816	13.0698490
11.9999882	13.5267420
12.0999514	14.4358187
12.2000991	15.0142365
12.3000745	15.3322449
12.4000146	15.6419935
12.4999329	16.1015892
12.5999798	16.1554699
12.6999695	16.1124649
12.7999529	15.8381186
12.8999844	15.7500162
12.9999997	15.5800152
13.0998917	15.0284681
13.1999716	14.9094210
13.2998884	14.9843779
13.3999363	15.8819313
13.5001303	16.6897106
13.5998641	17.4788628
13.7000612	18.4630032
13.7999124	18.6393433
13.8999171	18.3167076
14.0000174	18.0158062
14.1000195	17.6855850
14.1999137	17.9142399
14.2999455	18.1589565
14.3999578	18.3348083
14.4999483	18.4491596
14.5999265	18.5520649
14.7000701	18.4973145
14.8000084	18.6699562
14.8999818	18.9004974
14.9998687	19.3038826
15.0999183	19.6907520
15.1999606	19.4780445
15.2999327	19.1651192
15.3998968	19.2155190
15.4999969	19.9169674
15.5999808	20.6880341
15.7000325	21.5161419
15.7999532	21.6288147
15.9000599	21.3991756
16.0001961	20.9228477
16.1000788	20.8732014
16.1999114	21.2980003
16.2999572	21.2225838
16.4002040	21.3528290
16.5000399	21.3994904
16.5999560	21.5007973
16.6999314	21.7260284
16.7999775	22.1506119
16.8999519	22.8400440
16.9999555	23.4962521
17.0999181	23.5033646
17.1999805	23.0032349
17.3000125	22.3281574
17.3999588	21.8072414
17.4998845	22.0069866
17.6001152	22.1145821
17.7000018	21.7097244
17.7999831	21.2659569
17.8999158	21.1292057
17.9999560	21.4597778
18.1000054	22.7232914
18.1999992	24.2626553
18.2999880	25.5770683
18.3999793	26.4038868
18.5000020	26.3687782
18.5999629	26.0149078
18.7000453	25.8716297
18.8000474	25.9014282
18.8999181	26.0618668
18.9999598	26.3606529
19.0999296	25.9036064
19.2000000	25.5260448
19.2999636	24.9636440
19.4000870	24.7467766
19.4999299	24.5462456
19.6000635	24.9253693
19.7000228	25.2431431
19.8000371	25.6119537
19.9000681	25.5901814
19.9999265	25.8255558
20.0999237	26.3047066
20.2001119	27.1508732
20.3000404	28.2001762
20.4000256	28.0956364
20.4999460	26.6400509
20.5999949	25.9131279
20.7000248	26.3911247
20.7999534	27.3447857
20.8998720	28.8564167
21.0000159	29.8532352
21.0999913	30.1729279
21.2000755	29.9689655
21.2999744	29.5616188
21.4000481	29.4331131
21.4999324	29.0750484
21.6000778	28.8849106
21.7001449	28.9106731
21.7999734	28.8300686
21.9000829	28.7469273
22.0001055	28.7664394
22.0999846	29.1422386
22.1999475	29.7050209
22.2999217	29.8376484
22.3999455	29.6585789
22.5000090	29.7102470
22.6000315	29.7250175
22.7000888	30.1281376
22.8000916	30.1986828
22.8999186	30.3899498
22.9999511	30.0026436
23.1001395	29.7386341
23.2000443	30.1654739
23.2999596	30.4737606
23.3999864	31.0913811
23.4999785	31.9605923
23.6000612	32.6042900
23.7000008	33.6192627
23.8000312	34.7080154
23.8999616	34.4402122
24.0000077	33.5200043
24.0999130	33.2413940
24.1999457	33.5159874
24.3000776	33.4593201
24.3999918	33.6247177
24.4999447	34.3643837
24.5999025	34.8203239
24.6999468	35.0000000
24.7999447	35.0000000
24.9000289	35.0000000
25.0001738	35.0000000
25.0999916	35.0000000
25.2000809	35.0000000
25.2999040	35.0000000
25.4000036	35.0000000
25.4999416	35.0000000
25.5999224	35.0000000
25.6999560	35.0000000
25.8001047	35.0000000
25.8999936	35.0000000
25.9999788	35.0000000
26.1001198	35.0000000
26.1999355	35.0000000
26.2999785	35.0000000
26.4000392	35.0000000
26.4999337	35.0000000
26.5999693	35.0000000
26.7000113	35.0000000
26.8000952	35.0000000
26.9000079	35.0000000
26.9999086	35.0000000
27.1000197	35.0000000
27.2000128	35.0000000
27.2998950	35.0000000
27.4000492	35.0000000
27.5000210	35.0000000
27.5999657	35.0000000
27.6999345	35.0000000
27.7999634	35.0000000
27.9000317	35.0000000
28.0000448	35.0000000
28.0999698	35.0000000
28.2001239	35.0000000
28.3000056	35.0000000
28.4000343	35.0000000
28.4998487	35.0000000
28.5999045	35.0000000
28.7000343	35.0000000
28.7999549	35.0000000
28.8999227	35.0000000
29.0000655	35.0000000
29.1000218	35.0000000
29.2000456	35.0000000
29.2998856	35.0000000
29.4000686	35.0000000
29.4999391	35.0000000
29.6000282	35.0000000
29.6999229	35.0000000
29.8000806	35.0000000
29.8999683	35.0000000
29.9421983	0.0000000
