# Time	Input
-4.6997427	0.0000000
-4.5997914	0.0000000
-4.4998246	0.0000000
-4.3999537	0.0000000
-4.2994109	0.0000000
-4.1998592	0.0000000
-4.0998298	0.0000000
-3.9997622	0.0000000
-3.8998912	0.0000000
-3.7997983	0.0000000
-3.6999588	0.0000000
-3.5999007	0.0000000
-3.4999424	0.0000000
-3.3998794	0.0000000
-3.2996447	0.0000000
-3.1999160	0.0000000
-3.0998700	0.0000000
-2.9997752	0.0000000
-2.8998879	0.0000000
-2.7997568	0.0000000
-2.6998067	0.0000000
-2.5998006	0.0000000
-2.4998134	0.0000000
-2.3998518	0.0000000
-2.2993853	0.0000000
-2.1997816	0.0000000
-2.0997604	0.0000000
-1.9998984	0.0000000
-1.8998615	0.0000000
-1.7998871	0.0000000
-1.6998920	0.0000000
-1.5998175	0.0000000
-1.4998269	0.0000000
-1.3998277	0.0000000
-1.2997878	0.0000000
-1.1997399	0.0000000
-1.0999383	0.0000000
-0.9997266	0.0000000
-0.8997893	0.0000000
-0.7998124	0.0000000
-0.6998295	0.0000000
-0.5999278	0.0000000
-0.4999347	0.0000000
-0.3999291	0.0000000
-0.2998449	0.0000000
-0.1998689	0.0000000
-0.0995776	0.0000000
0.0000998	-1.3270810
0.1001444	-1.6438005
0.2001940	-1.3928146
0.3002542	-0.9728669
0.4001756	-0.5148259
0.5000878	0.0667475
0.6001354	0.2268602
0.7001572	0.1291117
0.8001664	-0.0591104
0.9001615	-0.0565429
1.0000835	0.0377740
1.1001672	0.2586023
1.2006221	0.2322492
1.3002419	0.2047036
1.4001300	0.2307448
1.5002660	0.1992176
1.6001549	0.1518169
1.7002542	-0.0006676
1.8001324	-0.0266335
1.9001344	0.1858392
2.0001869	0.4623109
2.1000993	0.7149551
2.2002445	0.9388173
2.3000791	0.9155379
2.4000507	0.9540597
2.5001372	1.0437821
2.6001247	1.2068869
2.7001334	1.2799438
2.8002094	1.2295042
2.9001357	1.2070436
3.0002104	1.2763828
3.1000694	1.3899699
3.2001029	1.4347000
3.3001853	1.4861469
3.4002294	1.3358938
3.5001080	1.3232788
3.6001833	1.1908727
3.7001367	0.9268273
3.8001572	1.2104515
3.9001221	1.7599894
4.0001812	2.3888874
4.1001185	2.8172622
4.2001096	2.9748330
4.3000663	2.6703508
4.4002429	2.0136008
4.5000556	1.5162418
4.6001011	0.9977618
4.7000620	0.9436352
4.8000996	0.9868996
4.9001751	1.1792171
5.0000620	1.2149037
5.1001661	1.1875257
5.2000901	1.1789275
5.3001290	1.2430353
5.4001708	1.3213327
5.5001027	1.4152346
5.6002455	2.0495288
5.7005519	2.6520119
5.8001434	3.1582725
5.9002281	3.7039220
6.0001633	3.8877957
6.1001057	3.6373496
6.2001377	2.9720123
6.3001480	2.0563688
6.4001836	1.9678736
6.5002312	2.5597990
6.6001549	3.3393886
6.7004534	4.0457063
6.8002056	4.8054490
6.9001070	5.1535974
7.0001119	5.0947814
7.1001928	4.5545149
7.2000538	3.5828404
7.3001810	3.0455832
7.4002189	3.2348721
7.5000863	3.4294612
7.6001155	4.0298572
7.7002496	4.2992215
7.8000904	4.3301687
7.9000929	4.1873708
8.0001316	4.6491742
8.1000707	5.3531804
8.2002621	6.3306208
8.3002849	7.1089740
8.4001679	7.4936543
8.5001073	6.9221320
8.6001446	6.1987152
8.7004224	5.9719825
8.8002243	5.8929129
8.9000745	6.0017161
9.0000891	6.1441636
9.1000896	6.1069474
9.2001869	6.0209570
9.3000748	6.3137221
9.4001032	6.9594274
9.5002703	8.1986475
9.6002729	9.3074951
9.7001784	10.3310232
9.8001349	10.7012348
9.9000768	10.7686062
10.0001103	10.1300707
10.1002058	8.9127264
10.2002406	8.6485844
10.3003610	8.5134258
10.4001748	8.5984650
10.5003853	9.6246891
10.6002084	10.7204018
10.7000622	11.6988611
10.8001280	12.8993378
10.9002401	13.6467237
11.0001610	13.8564882
11.1001375	13.7616510
11.2001236	13.6348190
11.3003244	13.7223558
11.4001608	13.6363783
11.5001946	13.8930254
11.6002409	14.5947456
11.7002330	15.3814573
11.8001851	15.8089371
11.9001014	16.0975552
12.0001564	16.3404465
12.1002760	16.8518753
12.2001275	17.4767246
12.3001234	17.8501740
12.4001597	18.1119900
12.5001480	18.3086700
12.6001925	18.0965691
12.7002294	18.2263870
12.8001925	18.6702499
12.9000822	19.0972595
13.0001702	19.1918468
13.1001661	19.2287598
13.2001764	19.2924175
13.3001720	19.7560482
13.4001897	20.8621349
13.5001472	22.1723061
13.6002355	22.5200539
13.7003021	22.1935883
13.8002985	21.2601223
13.9004818	20.2324677
14.0002790	20.2436275
14.1001114	21.1740303
14.2001633	22.4677849
14.3001679	23.8804016
14.4001669	24.5004025
14.5001626	24.7925854
14.6001526	23.9553528
14.7001116	22.9868679
14.8001280	22.2514114
14.9000996	21.7248783
15.0001656	21.9453182
15.1002314	23.1938362
15.2000840	24.7910233
15.3000778	26.0506248
15.4001290	26.6194057
15.5002025	26.6365623
15.6001736	26.2674961
15.7002010	26.0589676
15.8001526	26.0951385
15.9002038	26.0331821
16.0001382	26.7629700
16.1001897	27.1788006
16.2000957	27.2184448
16.3001905	26.5513706
16.4001111	25.9859943
16.5000655	26.1032944
16.6001290	26.7981014
16.7000550	27.6951981
16.8000545	27.9371548
16.9000952	28.0523663
17.0001690	27.9303417
17.1001316	27.9564018
17.2001618	27.8165989
17.3004370	28.4419270
17.4002030	29.6718826
17.5001004	31.1339931
17.6001818	31.6534691
17.7000932	31.2053680
17.8001567	30.8524990
17.9002138	30.9095955
18.0001861	31.3442860
18.1001733	30.8719463
18.2002499	29.9280605
18.3001336	29.8907394
18.4000975	30.4064732
18.5000950	31.7615433
18.6002476	33.0150642
18.7000612	33.8838463
18.8000538	33.5826225
18.9000673	32.3684807
19.0001364	31.8612728
19.1002020	32.0344772
19.2003763	33.6638870
19.3001569	34.9479637
19.4001462	35.0000000
19.5001065	35.0000000
19.6001398	33.7900314
19.7003008	33.8415871
19.8001034	34.8353310
19.9002916	35.0000000
19.9319360	0.0000000
