# Time	x	y	z	roll	pitch	yaw	vx	vy	vz	
-7.1184266	-156.8196114	226.0590888	-2495.2153824	-0.0450944	0.2138111	-1.4980965	0.5541229	3.9272568	-16.9920618
-7.0183898	-156.5819734	226.3295365	-2496.5881068	-0.0491308	0.2256131	-1.5018316	0.5404556	3.9262409	-17.0047281
-6.9179999	-156.2915233	226.6884362	-2498.3064972	-0.0533498	0.2375213	-1.5062950	0.5359637	3.9293099	-17.0234555
-6.8180196	-155.9655683	227.1225016	-2500.2808927	-0.0548079	0.2317446	-1.5071192	0.5568087	3.9325961	-17.0403271
-6.7176003	-155.7388704	227.4167183	-2501.6646340	-0.0525140	0.2230409	-1.5050743	0.5704990	3.9320961	-17.0521255
-6.6184509	-155.4101221	227.8199492	-2503.6462715	-0.0443763	0.2149947	-1.5012268	0.5768348	3.9330844	-17.0723873
-6.5184596	-155.1108792	228.1588350	-2505.3694956	-0.0346288	0.2204763	-1.5002625	0.5603374	3.9306858	-17.0863268
-6.4184340	-154.8587458	228.4400702	-2506.7460911	-0.0266323	0.2346958	-1.5023319	0.5365599	3.9242923	-17.0874613
-6.3177075	-154.4826922	228.8744590	-2508.7144518	-0.0195591	0.2588762	-1.5101249	0.5092734	3.9112239	-17.0703957
-6.2184392	-154.1442368	229.2918129	-2510.4131479	-0.0191354	0.2731240	-1.5187089	0.5105434	3.8956280	-17.0545707
-6.1177953	-153.8718746	229.6420158	-2511.7675590	-0.0217741	0.2815368	-1.5251591	0.5259214	3.8851592	-17.0492057
-6.0184376	-153.4845264	230.1567686	-2513.7109582	-0.0289695	0.2794748	-1.5322809	0.5500510	3.8723399	-17.0497228
-5.9176696	-153.1577955	230.5970742	-2515.4057945	-0.0357158	0.2664458	-1.5353210	0.5645131	3.8643807	-17.0507376
-5.8184553	-152.9044763	230.9304934	-2516.7687681	-0.0398541	0.2535167	-1.5362970	0.5683497	3.8614541	-17.0615752
-5.7184028	-152.5473480	231.3846802	-2518.7371381	-0.0425348	0.2406341	-1.5373222	0.5622808	3.8664759	-17.0824175
-5.6185047	-152.2408258	231.7572640	-2520.4506216	-0.0418729	0.2404680	-1.5393080	0.5539011	3.8731827	-17.0984444
-5.5184333	-151.9936714	232.0551494	-2521.8210947	-0.0401048	0.2469717	-1.5422563	0.5485623	3.8825790	-17.1059568
-5.4184686	-151.6325401	232.4958576	-2523.7891037	-0.0382456	0.2562873	-1.5485980	0.5466369	3.8962183	-17.1081922
-5.3184906	-151.3120784	232.8929968	-2525.4973169	-0.0391500	0.2558934	-1.5546178	0.5519446	3.8995921	-17.1008528
-4.7244360	0.0000000	0.0000000	0.0000000	-0.0494956	0.2656901	-1.5683529	0.0000000	0.0000000	0.0000000
-4.6229000	0.0000000	-0.0000000	-0.0000000	-0.0469704	0.2904630	-1.5714377	0.0000000	0.0000000	-0.0000000
-4.5253220	0.0000923	-0.0004710	-0.0002977	-0.0468165	0.3092684	-1.5743135	0.0105278	0.0019547	-0.0028628
-4.4253010	0.0004063	-0.0018090	-0.0014514	-0.0488115	0.3189998	-1.5751035	0.0239073	0.0055840	-0.0097718
-4.3253169	0.0011231	-0.0034607	-0.0041852	-0.0508157	0.3167449	-1.5735899	0.0252987	0.0108581	-0.0313210
-4.2253225	0.0021547	-0.0041347	-0.0086603	-0.0519429	0.2926697	-1.5704742	0.0142538	0.0132552	-0.0457977
-4.1245348	0.0036235	-0.0033735	-0.0147543	-0.0506009	0.2291253	-1.5657059	0.0069524	0.0231495	-0.0761822
-4.0246879	0.0063356	-0.0015112	-0.0246600	-0.0465182	0.1374816	-1.5616178	0.0011451	0.0405473	-0.1196576
-3.9246062	0.0102122	0.0001092	-0.0385317	-0.0396174	0.0855723	-1.5604574	0.0042442	0.0493071	-0.1511179
-3.8253279	0.0137174	0.0004671	-0.0542194	-0.0317030	0.0902745	-1.5611065	0.0168589	0.0379919	-0.1675840
-3.7253535	0.0155982	-0.0002834	-0.0729245	-0.0240541	0.1043848	-1.5613153	0.0317108	0.0109054	-0.1949414
-3.6253012	0.0149300	-0.0016013	-0.0953088	-0.0157841	0.1118105	-1.5612398	0.0411513	-0.0143665	-0.2384233
-3.5253320	0.0129051	-0.0026647	-0.1214053	-0.0040988	0.1159478	-1.5616997	0.0401392	-0.0209539	-0.2994561
-3.4253164	0.0106934	-0.0030446	-0.1543650	0.0098082	0.1165330	-1.5618456	0.0418798	-0.0201350	-0.3455425
-3.3253281	0.0087811	-0.0030145	-0.1909040	0.0243658	0.0974856	-1.5622704	0.0417476	-0.0244162	-0.3708423
-3.2253307	0.0069152	-0.0032540	-0.2269207	0.0378541	0.0571111	-1.5643452	0.0352197	-0.0335271	-0.3718570
-3.1253345	0.0049022	-0.0046263	-0.2643730	0.0502336	0.0245756	-1.5667420	0.0322616	-0.0349174	-0.3617930
-3.0247288	0.0033616	-0.0073275	-0.3003651	0.0599578	0.0148179	-1.5672354	0.0383793	-0.0314746	-0.3418050
-2.9246781	0.0025232	-0.0105337	-0.3325160	0.0666378	0.0293210	-1.5662071	0.0389492	-0.0251132	-0.3217839
-2.8252964	0.0016904	-0.0130816	-0.3633340	0.0685478	0.0376586	-1.5672733	0.0297492	-0.0312505	-0.2824469
-2.7243028	-0.0004290	-0.0144441	-0.3896203	0.0642545	0.0097509	-1.5725458	0.0158597	-0.0461130	-0.2294700
-2.6253233	-0.0041922	-0.0154634	-0.4098871	0.0563496	-0.0091242	-1.5776261	0.0085793	-0.0581312	-0.1833846
-2.5245883	-0.0098808	-0.0164097	-0.4269651	0.0470409	0.0137987	-1.5799510	0.0079067	-0.0726579	-0.1444691
-2.4253228	-0.0167966	-0.0170077	-0.4409175	0.0368977	0.0498819	-1.5823428	0.0079595	-0.0771115	-0.1236146
-2.3253071	-0.0236187	-0.0170277	-0.4522331	0.0238554	0.0533893	-1.5861850	0.0085039	-0.0724650	-0.1045973
-2.2252931	-0.0304090	-0.0165882	-0.4623438	0.0079813	0.0254328	-1.5924618	-0.0065645	-0.0661434	-0.0900805
-2.1253202	-0.0367456	-0.0153169	-0.4716147	-0.0083410	0.0041044	-1.5974028	-0.0089423	-0.0588476	-0.0898480
-2.0252931	-0.0429272	-0.0132224	-0.4813518	-0.0238403	-0.0031314	-1.6035171	-0.0279769	-0.0614465	-0.1017280
-1.9251753	-0.0491538	-0.0094066	-0.4919648	-0.0380523	0.0096445	-1.6115842	-0.0473938	-0.0656777	-0.1206441
-1.8253238	-0.0557036	-0.0036746	-0.5050692	-0.0509721	0.0354632	-1.6226122	-0.0607987	-0.0582386	-0.1436797
-1.7253125	-0.0613223	0.0024845	-0.5187049	-0.0635282	0.0646675	-1.6339139	-0.0488122	-0.0500057	-0.1511694
-1.6252972	-0.0666152	0.0088427	-0.5326043	-0.0769601	0.0857218	-1.6466428	-0.0503901	-0.0440981	-0.1358584
-1.5253258	-0.0711321	0.0161513	-0.5446651	-0.0899183	0.1211940	-1.6624509	-0.0643133	-0.0352840	-0.1197551
-1.4253240	-0.0748866	0.0248739	-0.5543904	-0.1036917	0.1442267	-1.6793695	-0.0838766	-0.0372314	-0.1045984
-1.3253274	-0.0789323	0.0356082	-0.5638190	-0.1159430	0.1207762	-1.6918191	-0.0910298	-0.0419160	-0.1176306
-1.2253194	-0.0838241	0.0461288	-0.5745215	-0.1257274	0.0812006	-1.7000433	-0.0768943	-0.0517399	-0.1272211
-1.1245512	-0.0894706	0.0543788	-0.5859945	-0.1324049	0.0730664	-1.7096713	-0.0573075	-0.0537609	-0.1375757
-1.0253238	-0.0960992	0.0608185	-0.5997757	-0.1355836	0.0757919	-1.7202169	-0.0324255	-0.0550802	-0.1535562
-0.9253481	-0.1031146	0.0645102	-0.6176500	-0.1307905	0.0731915	-1.7261468	0.0097526	-0.0425483	-0.2137635
-0.8248589	-0.1091954	0.0656024	-0.6417365	-0.1160942	0.0777181	-1.7286964	0.0275186	-0.0197847	-0.2980184
-0.7253545	-0.1137040	0.0666472	-0.6748489	-0.0940325	0.0987646	-1.7314501	0.0169932	0.0046951	-0.3604112
-0.6253261	-0.1156219	0.0694808	-0.7126833	-0.0683995	0.1272024	-1.7333043	0.0065386	0.0193897	-0.3879596
-0.5253340	-0.1154480	0.0737959	-0.7498589	-0.0434407	0.1159132	-1.7320147	0.0039865	0.0231360	-0.3885345
-0.4251320	-0.1146284	0.0776991	-0.7872024	-0.0231529	0.0690142	-1.7313620	0.0008298	0.0120326	-0.3514191
-0.3253414	-0.1147300	0.0787875	-0.8203654	-0.0070760	0.0462264	-1.7310338	0.0214010	-0.0027442	-0.2983563
-0.2253169	-0.1156303	0.0768440	-0.8481984	0.0075057	0.0578620	-1.7275734	0.0506173	-0.0057045	-0.2729768
-0.1244698	-0.1160620	0.0729664	-0.8762329	0.0224438	0.1000230	-1.7220295	0.0585230	0.0057266	-0.2722402
-0.0253522	-0.1147907	0.0693077	-0.9047113	0.0380758	0.1715628	-1.7141114	0.0631621	0.0164464	-0.2778268
0.0746911	-0.1115039	0.0667100	-0.9328650	0.0557722	0.2803460	-1.7013438	0.0781492	0.0372609	-0.2925074
0.1746555	-0.1057484	0.0670830	-0.9640280	0.0710538	0.3366100	-1.6882978	0.0800530	0.0446478	-0.3042388
0.2746941	-0.0990919	0.0722645	-0.9951868	0.0750112	0.2549567	-1.6956458	0.0088414	0.0283785	-0.3209698
0.3747116	-0.0937759	0.0799534	-1.0253761	0.0800454	0.2028331	-1.7034500	-0.0217179	0.0131838	-0.3311027
0.4754437	-0.0897535	0.0884639	-1.0582762	0.0890737	0.2217575	-1.7039668	-0.0203352	-0.0119572	-0.3413415
0.5746501	-0.0868412	0.0983217	-1.0922015	0.0963631	0.2339782	-1.7059004	-0.0264820	-0.0201828	-0.3520774
0.6746916	-0.0837305	0.1091739	-1.1247041	0.0984515	0.2053041	-1.7144138	-0.0426048	-0.0149506	-0.3581278
0.7747067	-0.0796227	0.1211710	-1.1588996	0.0967259	0.1732078	-1.7262379	-0.0599851	-0.0094000	-0.3516856
0.8747868	-0.0746313	0.1334589	-1.1927531	0.0928608	0.1479746	-1.7394172	-0.0770658	0.0021381	-0.3507707
0.9746924	-0.0694585	0.1451980	-1.2246512	0.0884696	0.1617066	-1.7492116	-0.0802349	-0.0010663	-0.3439558
1.0746616	-0.0644393	0.1584351	-1.2572852	0.0812273	0.1755619	-1.7597672	-0.0862956	-0.0084829	-0.3365259
1.1746693	-0.0599039	0.1728487	-1.2885281	0.0703351	0.1770706	-1.7732107	-0.0968569	-0.0111669	-0.3224661
1.2748892	-0.0561426	0.1866018	-1.3163454	0.0548680	0.1756107	-1.7889110	-0.0965594	-0.0135469	-0.2941840
1.3746683	-0.0532821	0.1994388	-1.3435427	0.0373927	0.1785251	-1.8013319	-0.0622867	-0.0169959	-0.2756043
1.4746839	-0.0514385	0.2102376	-1.3702819	0.0188225	0.1747515	-1.8130942	-0.0537962	-0.0169142	-0.2767642
1.5747092	-0.0498697	0.2201958	-1.3966221	0.0012514	0.1549684	-1.8255299	-0.0580518	-0.0111157	-0.2958830
1.6746849	-0.0485872	0.2302781	-1.4262848	-0.0138389	0.1340590	-1.8357886	-0.0478716	-0.0146701	-0.3124937
1.7748618	-0.0492158	0.2394329	-1.4574394	-0.0263920	0.1423718	-1.8441999	-0.0383679	-0.0335522	-0.3167142
1.8746698	-0.0526420	0.2483142	-1.4880123	-0.0363188	0.1498141	-1.8506478	-0.0301298	-0.0670538	-0.3329422
1.9746829	-0.0596645	0.2575953	-1.5222974	-0.0418469	0.1621736	-1.8542585	-0.0053151	-0.0937867	-0.3623024
2.0746644	-0.0692455	0.2656889	-1.5597145	-0.0447813	0.1751822	-1.8553523	0.0236771	-0.0991760	-0.3891948
2.1746662	-0.0804807	0.2716315	-1.5980800	-0.0448550	0.2047506	-1.8533279	0.0637889	-0.1220190	-0.4118764
2.2746412	-0.0954507	0.2769671	-1.6421563	-0.0403598	0.2618755	-1.8489850	0.0964856	-0.1516196	-0.4557147
2.3747156	-0.1127358	0.2842902	-1.6903873	-0.0335620	0.3139600	-1.8426040	0.1077483	-0.1794163	-0.4897518
2.4755653	-0.1299883	0.2943517	-1.7383396	-0.0280900	0.3409611	-1.8363700	0.0995777	-0.1888189	-0.5011689
2.5747052	-0.1478657	0.3074631	-1.7892384	-0.0245674	0.3422682	-1.8312858	0.0876931	-0.1902949	-0.5062580
2.6748739	-0.1653190	0.3219052	-1.8400161	-0.0229971	0.3208238	-1.8270282	0.0733417	-0.1904349	-0.5079370
2.7746875	-0.1825170	0.3370307	-1.8907823	-0.0225489	0.2847998	-1.8241818	0.0504823	-0.1888888	-0.5129639
2.8746872	-0.1987002	0.3517476	-1.9393528	-0.0225811	0.2432893	-1.8227867	0.0278576	-0.1884298	-0.5190512
2.9746867	-0.2157728	0.3669564	-1.9910139	-0.0231000	0.2076847	-1.8223418	0.0167335	-0.1876320	-0.5248572
3.0746852	-0.2330058	0.3814487	-2.0433536	-0.0231286	0.1859618	-1.8230788	0.0079372	-0.1872936	-0.5312395
3.1746555	-0.2494619	0.3950965	-2.0936938	-0.0222567	0.1803609	-1.8249399	-0.0004846	-0.1882367	-0.5358143
3.2746880	-0.2666339	0.4101594	-2.1471928	-0.0209385	0.1879713	-1.8280894	-0.0094574	-0.1892024	-0.5444937
3.3748372	-0.2834874	0.4266140	-2.2013553	-0.0191762	0.2057146	-1.8316706	-0.0164081	-0.1911768	-0.5537866
3.4746982	-0.2991362	0.4440325	-2.2533318	-0.0170374	0.2287388	-1.8356329	-0.0222782	-0.1932112	-0.5610243
3.5778911	-0.3150735	0.4646505	-2.3083343	-0.0144064	0.2503776	-1.8407873	-0.0338135	-0.1964405	-0.5692622
3.6746586	-0.3302243	0.4877441	-2.3634203	-0.0118725	0.2669004	-1.8470799	-0.0447997	-0.1961206	-0.5767540
3.7746650	-0.3437470	0.5115932	-2.4155401	-0.0105157	0.2758995	-1.8546238	-0.0556218	-0.1950347	-0.5763754
3.8746962	-0.3572650	0.5380828	-2.4697782	-0.0105612	0.2772183	-1.8634182	-0.0640061	-0.1949457	-0.5729168
3.9746862	-0.3704254	0.5654852	-2.5237021	-0.0118601	0.2717681	-1.8730456	-0.0699955	-0.1959648	-0.5710432
4.0746921	-0.3827345	0.5919704	-2.5749205	-0.0141601	0.2613323	-1.8830576	-0.0766557	-0.1964908	-0.5741610
4.1746849	-0.3955560	0.6200881	-2.6289644	-0.0171254	0.2485177	-1.8931521	-0.0821972	-0.1977762	-0.5758657
4.2749363	-0.4083112	0.6484652	-2.6832239	-0.0202205	0.2356229	-1.9032097	-0.0911151	-0.1975944	-0.5768402
4.3747026	-0.4202756	0.6759018	-2.7350850	-0.0232542	0.2260898	-1.9137587	-0.1018778	-0.1976171	-0.5799732
4.4746975	-0.4326346	0.7054475	-2.7899033	-0.0259642	0.2215750	-1.9250849	-0.1098720	-0.1998856	-0.5839439
4.5746836	-0.4446050	0.7357170	-2.8449374	-0.0284513	0.2223819	-1.9374784	-0.1177382	-0.1973391	-0.5875335
4.6746790	-0.4552826	0.7652583	-2.8974696	-0.0309593	0.2272573	-1.9510601	-0.1217739	-0.1943297	-0.5919932
4.7747046	-0.4656342	0.7971507	-2.9528831	-0.0337556	0.2348296	-1.9658096	-0.1263589	-0.1913988	-0.5974605
4.8746793	-0.4749661	0.8301315	-3.0083997	-0.0371543	0.2430182	-1.9814316	-0.1330875	-0.1868402	-0.5998867
4.9746885	-0.4828865	0.8624597	-3.0609765	-0.0412303	0.2498457	-1.9975087	-0.1371345	-0.1855892	-0.6010138
5.0747028	-0.4905085	0.8971700	-3.1160888	-0.0456346	0.2531717	-2.0134515	-0.1372702	-0.1844027	-0.6047520
5.1746701	-0.4972339	0.9304939	-3.1687337	-0.0499453	0.2528747	-2.0285323	-0.1357206	-0.1821411	-0.6092433
5.2746691	-0.5037876	0.9655201	-3.2247410	-0.0534465	0.2496319	-2.0409314	-0.1318476	-0.1767760	-0.6159493
5.3746673	-0.5098938	1.0000753	-3.2816227	-0.0560014	0.2446686	-2.0517339	-0.1261256	-0.1722194	-0.6243269
5.4746911	-0.5153663	1.0323250	-3.3366784	-0.0575659	0.2396006	-2.0617348	-0.1211755	-0.1676791	-0.6343404
5.5746762	-0.5206865	1.0657430	-3.3957808	-0.0582952	0.2354046	-2.0714210	-0.1179882	-0.1616438	-0.6421553
5.6746780	-0.5254011	1.0986716	-3.4557397	-0.0585136	0.2327909	-2.0810765	-0.1164312	-0.1562267	-0.6490517
5.7755041	-0.5295157	1.1312760	-3.5164140	-0.0583704	0.2323482	-2.0906859	-0.1146069	-0.1523266	-0.6535812
5.8749691	-0.5329262	1.1621318	-3.5747855	-0.0580425	0.2341035	-2.1000938	-0.1117284	-0.1488625	-0.6567947
5.9754929	-0.5359891	1.1942365	-3.6363914	-0.0575687	0.2379368	-2.1092546	-0.1076846	-0.1458237	-0.6596180
6.0760940	-0.5384385	1.2244980	-3.6951622	-0.0570598	0.2429385	-2.1179534	-0.1029222	-0.1432310	-0.6612200
6.1776722	-0.5405556	1.2563295	-3.7576610	-0.0564134	0.2476978	-2.1261806	-0.0976819	-0.1402798	-0.6646122
6.2771466	-0.5421743	1.2879614	-3.8204581	-0.0555701	0.2510801	-2.1337410	-0.0947574	-0.1382553	-0.6696012
6.3750234	-0.5432988	1.3179276	-3.8804682	-0.0545666	0.2523574	-2.1405644	-0.0919490	-0.1368791	-0.6728723
6.4751716	-0.5441271	1.3492131	-3.9439278	-0.0535012	0.2517026	-2.1469025	-0.0892708	-0.1351257	-0.6774972
6.5747279	-0.5445647	1.3787122	-4.0048578	-0.0524075	0.2497684	-2.1526941	-0.0872621	-0.1317240	-0.6829649
6.6747100	-0.5446634	1.4093346	-4.0695023	-0.0513337	0.2473130	-2.1579886	-0.0849541	-0.1292726	-0.6875074
6.7746450	-0.5445319	1.4395392	-4.1348166	-0.0503328	0.2449324	-2.1627939	-0.0813302	-0.1265952	-0.6921218
6.8746470	-0.5442526	1.4678152	-4.1975418	-0.0493884	0.2431000	-2.1673474	-0.0776009	-0.1250576	-0.6982207
6.9746714	-0.5437701	1.4972018	-4.2642440	-0.0485763	0.2418519	-2.1715582	-0.0760035	-0.1229065	-0.7063796
7.0746683	-0.5430355	1.5264393	-4.3317860	-0.0478294	0.2411352	-2.1755371	-0.0741957	-0.1216444	-0.7123755
7.1746255	-0.5421163	1.5540562	-4.3964354	-0.0470560	0.2407330	-2.1791924	-0.0734612	-0.1200101	-0.7166310
7.2747000	-0.5409153	1.5830214	-4.4648268	-0.0463986	0.2409103	-2.1827312	-0.0731371	-0.1190540	-0.7188728
7.3746273	-0.5395578	1.6119652	-4.5334292	-0.0459126	0.2417817	-2.1861365	-0.0724430	-0.1201825	-0.7201509
7.4746632	-0.5381106	1.6395773	-4.5990337	-0.0455246	0.2433603	-2.1895736	-0.0720643	-0.1184008	-0.7227430
7.5746552	-0.5362748	1.6685264	-4.6682073	-0.0453479	0.2455952	-2.1930344	-0.0706565	-0.1168100	-0.7267873
7.6779546	-0.5341711	1.6974659	-4.7378186	-0.0453343	0.2481525	-2.1963596	-0.0685219	-0.1152247	-0.7315083
7.7755205	-0.5319515	1.7250642	-4.8046353	-0.0454764	0.2502768	-2.1995930	-0.0663885	-0.1150961	-0.7383937
7.8746911	-0.5294488	1.7541890	-4.8755163	-0.0457493	0.2511658	-2.2025838	-0.0650095	-0.1145361	-0.7449032
7.9746673	-0.5267930	1.7833377	-4.9469352	-0.0462533	0.2505771	-2.2053940	-0.0641105	-0.1139973	-0.7514114
8.0750095	-0.5242069	1.8110079	-5.0153828	-0.0469560	0.2489135	-2.2081280	-0.0622222	-0.1131187	-0.7565655
8.1746606	-0.5215529	1.8400230	-5.0880453	-0.0479060	0.2468768	-2.2107418	-0.0602967	-0.1133259	-0.7611933
8.2746708	-0.5190755	1.8689453	-5.1612602	-0.0492008	0.2448914	-2.2132643	-0.0584228	-0.1144752	-0.7663834
8.3746632	-0.5169162	1.8963263	-5.2311600	-0.0508158	0.2432832	-2.2156427	-0.0570946	-0.1146555	-0.7693312
8.4746708	-0.5148011	1.9251171	-5.3051597	-0.0525309	0.2422067	-2.2178790	-0.0559152	-0.1143724	-0.7714460
8.5746688	-0.5127656	1.9538598	-5.3795758	-0.0543811	0.2419343	-2.2199490	-0.0541087	-0.1135220	-0.7771042
8.6752929	-0.5107938	1.9812175	-5.4507823	-0.0562457	0.2425267	-2.2220315	-0.0544936	-0.1117579	-0.7825416
8.7746701	-0.5085090	2.0102837	-5.5263367	-0.0580163	0.2439179	-2.2242001	-0.0563518	-0.1107200	-0.7892350
8.8746409	-0.5059169	2.0397375	-5.6025221	-0.0597209	0.2457505	-2.2265183	-0.0581313	-0.1091454	-0.7975387
8.9746737	-0.5031492	2.0680113	-5.6753477	-0.0613766	0.2477631	-2.2290773	-0.0592141	-0.1073904	-0.8031126
9.0746785	-0.5000066	2.0979858	-5.7523681	-0.0631457	0.2496038	-2.2319349	-0.0584787	-0.1063505	-0.8077134
9.1746179	-0.4968591	2.1280861	-5.8297199	-0.0649947	0.2511170	-2.2348142	-0.0555012	-0.1070377	-0.8100671
9.2747282	-0.4940233	2.1567531	-5.9035053	-0.0671495	0.2521520	-2.2378107	-0.0526763	-0.1076802	-0.8125709
9.3746721	-0.4911711	2.1869508	-5.9814491	-0.0695562	0.2525970	-2.2407030	-0.0504135	-0.1073202	-0.8174731
9.4747023	-0.4884262	2.2172266	-6.0598842	-0.0723533	0.2522683	-2.2434886	-0.0486710	-0.1068641	-0.8223396
9.5746586	-0.4859366	2.2476489	-6.1388900	-0.0754888	0.2511605	-2.2460189	-0.0461824	-0.1089425	-0.8267700
9.6754378	-0.4840449	2.2766731	-6.2143514	-0.0788869	0.2494092	-2.2482841	-0.0436699	-0.1117878	-0.8300851
9.7754289	-0.4825353	2.3073739	-6.2944464	-0.0824719	0.2473804	-2.2502592	-0.0410007	-0.1124281	-0.8367169
9.8746616	-0.4814036	2.3365940	-6.3711450	-0.0860023	0.2454213	-2.2520129	-0.0405901	-0.1110204	-0.8415010
9.9746614	-0.4804014	2.3673028	-6.4521208	-0.0894954	0.2438443	-2.2535809	-0.0395966	-0.1099707	-0.8460719
10.0746757	-0.4796083	2.3980776	-6.5335273	-0.0929547	0.2429460	-2.2551991	-0.0390207	-0.1091122	-0.8496253
10.1746271	-0.4790004	2.4274406	-6.6111679	-0.0962876	0.2429552	-2.2568288	-0.0390852	-0.1082893	-0.8526487
10.2755075	-0.4784109	2.4585783	-6.6933194	-0.0996121	0.2439954	-2.2585652	-0.0393644	-0.1067221	-0.8574015
10.3746739	-0.4777821	2.4899385	-6.7759079	-0.1028610	0.2460783	-2.2602731	-0.0382296	-0.1047692	-0.8653387
10.4746360	-0.4772081	2.5200215	-6.8547910	-0.1060621	0.2489026	-2.2619254	-0.0374153	-0.1055400	-0.8701803
10.5754885	-0.4767289	2.5522283	-6.9384667	-0.1091574	0.2520822	-2.2634716	-0.0361149	-0.1066510	-0.8757065
10.6746583	-0.4764019	2.5848196	-7.0225258	-0.1119255	0.2549244	-2.2648629	-0.0330993	-0.1072675	-0.8809166
10.7746312	-0.4761920	2.6160119	-7.1027198	-0.1144448	0.2569789	-2.2660643	-0.0309719	-0.1063849	-0.8861967
10.8754015	-0.4760070	2.6491004	-7.1875925	-0.1167787	0.2577404	-2.2671240	-0.0304398	-0.1057749	-0.8909135
10.9754491	-0.4759741	2.6824867	-7.2731113	-0.1192398	0.2574744	-2.2681362	-0.0282958	-0.1069783	-0.8949493
11.0746634	-0.4762654	2.7142915	-7.3546954	-0.1221011	0.2564977	-2.2690947	-0.0256388	-0.1071582	-0.8983668
11.1746409	-0.4769873	2.7476422	-7.4405215	-0.1255477	0.2550047	-2.2700784	-0.0234580	-0.1083068	-0.8999213
11.2746778	-0.4782519	2.7809792	-7.5264879	-0.1296900	0.2531649	-2.2710109	-0.0200469	-0.1090654	-0.9006114
11.3746491	-0.4800098	2.8126423	-7.6084671	-0.1341566	0.2510974	-2.2716845	-0.0174520	-0.1094378	-0.9063769
11.4746831	-0.4824027	2.8461078	-7.6953883	-0.1386665	0.2488716	-2.2721398	-0.0153942	-0.1098797	-0.9130309
11.5746880	-0.4852154	2.8797869	-7.7830783	-0.1428163	0.2464626	-2.2721807	-0.0156799	-0.1081592	-0.9224256
11.6747180	-0.4881030	2.9120329	-7.8673139	-0.1463197	0.2441643	-2.2718354	-0.0159782	-0.1065436	-0.9341873
11.7746701	-0.4913109	2.9462744	-7.9571830	-0.1490690	0.2426068	-2.2712407	-0.0166639	-0.1040737	-0.9442341
11.8746614	-0.4945586	2.9806750	-8.0479623	-0.1511099	0.2426150	-2.2705905	-0.0166099	-0.1007079	-0.9528083
11.9746691	-0.4976406	3.0135187	-8.1349429	-0.1526140	0.2447611	-2.2703222	-0.0157958	-0.0996201	-0.9586889
12.0751967	-0.5008597	3.0483263	-8.2267773	-0.1539421	0.2487587	-2.2704985	-0.0149401	-0.0995269	-0.9620933
12.1746470	-0.5037840	3.0818511	-8.3142300	-0.1553456	0.2533824	-2.2710836	-0.0159995	-0.0999998	-0.9643901
12.2776461	-0.5065882	3.1176916	-8.4061616	-0.1570975	0.2572181	-2.2719022	-0.0180842	-0.1001511	-0.9661793
12.3746788	-0.5091625	3.1540914	-8.4979913	-0.1593161	0.2594041	-2.2729929	-0.0201433	-0.1003245	-0.9667753
12.4746575	-0.5116447	3.1890303	-8.5850763	-0.1619280	0.2598376	-2.2740237	-0.0194566	-0.1022184	-0.9667400
12.5746273	-0.5147178	3.2259456	-8.6767807	-0.1648726	0.2589369	-2.2747896	-0.0149719	-0.1044780	-0.9670167
12.6746952	-0.5185102	3.2625375	-8.7686069	-0.1678602	0.2573854	-2.2750120	-0.0066090	-0.1041276	-0.9707765
12.7746975	-0.5228772	3.2968999	-8.8566737	-0.1705526	0.2554884	-2.2742815	0.0033129	-0.1024968	-0.9777160
12.8747425	-0.5282421	3.3326517	-8.9505414	-0.1726521	0.2530755	-2.2725175	0.0108716	-0.1019050	-0.9908382
16.3747433	-0.5329741	3.3611833	-9.0268158	-0.1737004	0.2504383	-2.2703982	0.0132725	-0.1001103	-1.0038950
16.3747594	-0.5329741	3.3611833	-9.0268158	-0.1737004	0.2504383	-2.2703982	0.0132725	-0.1001103	-1.0038950
16.3747630	-0.5329741	3.3611833	-9.0268158	-0.1737004	0.2504383	-2.2703982	0.0132725	-0.1001103	-1.0038950
16.3747686	-0.5329741	3.3611833	-9.0268158	-0.1737004	0.2504383	-2.2703982	0.0132725	-0.1001103	-1.0038950
16.3747738	-0.5329741	3.3611833	-9.0268158	-0.1737004	0.2504383	-2.2703982	0.0132725	-0.1001103	-1.0038950
16.3747776	-0.5329741	3.3611833	-9.0268158	-0.1737004	0.2504383	-2.2703982	0.0132725	-0.1001103	-1.0038950
16.3747812	-0.5329741	3.3611833	-9.0268158	-0.1737004	0.2504383	-2.2703982	0.0132725	-0.1001103	-1.0038950
16.3747843	-0.5329741	3.3611833	-9.0268158	-0.1737004	0.2504383	-2.2703982	0.0132725	-0.1001103	-1.0038950
16.3747889	-0.5329741	3.3611833	-9.0268158	-0.1737004	0.2504383	-2.2703982	0.0132725	-0.1001103	-1.0038950
16.3747927	-0.5329741	3.3611833	-9.0268158	-0.1737004	0.2504383	-2.2703982	0.0132725	-0.1001103	-1.0038950
16.3748099	-0.5329741	3.3611833	-9.0268158	-0.1737004	0.2504383	-2.2703982	0.0132725	-0.1001103	-1.0038950
16.3748132	-0.5791447	3.7633394	-10.1627629	-0.1999151	0.2853403	-2.2327310	0.0089720	-0.0594570	-1.1831643
16.3748357	-0.5791447	3.7633394	-10.1627629	-0.1999151	0.2853403	-2.2327310	0.0089720	-0.0594570	-1.1831643
16.3748398	-0.5791447	3.7633394	-10.1627629	-0.1999151	0.2853403	-2.2327310	0.0089720	-0.0594570	-1.1831643
16.3748436	-0.5791447	3.7633394	-10.1627629	-0.1999151	0.2853403	-2.2327310	0.0089720	-0.0594570	-1.1831643
16.3748506	-0.5791447	3.7633394	-10.1627629	-0.1999151	0.2853403	-2.2327310	0.0089720	-0.0594570	-1.1831643
16.3748547	-0.5791447	3.7633394	-10.1627629	-0.1999151	0.2853403	-2.2327310	0.0089720	-0.0594570	-1.1831643
16.3748580	-0.5791447	3.7633394	-10.1627629	-0.1999151	0.2853403	-2.2327310	0.0089720	-0.0594570	-1.1831643
16.3748641	-0.5791447	3.7633394	-10.1627629	-0.1999151	0.2853403	-2.2327310	0.0089720	-0.0594570	-1.1831643
16.3748746	-0.5791447	3.7633394	-10.1627629	-0.1999151	0.2853403	-2.2327310	0.0089720	-0.0594570	-1.1831643
16.3748777	-0.5791447	3.7633394	-10.1627629	-0.1999151	0.2853403	-2.2327310	0.0089720	-0.0594570	-1.1831643
16.3748805	-0.5791447	3.7633394	-10.1627629	-0.1999151	0.2853403	-2.2327310	0.0089720	-0.0594570	-1.1831643
16.3748933	-0.6002317	4.2572619	-11.4733935	-0.2277173	0.3173920	-2.1936784	0.0046708	-0.0187964	-1.3624658
16.3748964	-0.6002317	4.2572619	-11.4733935	-0.2277173	0.3173920	-2.1936784	0.0046708	-0.0187964	-1.3624658
16.3749023	-0.6002317	4.2572619	-11.4733935	-0.2277173	0.3173920	-2.1936784	0.0046708	-0.0187964	-1.3624658
16.3749117	-0.6002317	4.2572619	-11.4733935	-0.2277173	0.3173920	-2.1936784	0.0046708	-0.0187964	-1.3624658
16.3749187	-0.6002317	4.2572619	-11.4733935	-0.2277173	0.3173920	-2.1936784	0.0046708	-0.0187964	-1.3624658
16.3749245	-0.6002317	4.2572619	-11.4733935	-0.2277173	0.3173920	-2.1936784	0.0046708	-0.0187964	-1.3624658
16.3749289	-0.6002317	4.2572619	-11.4733935	-0.2277173	0.3173920	-2.1936784	0.0046708	-0.0187964	-1.3624658
16.3749317	-0.6002317	4.2572619	-11.4733935	-0.2277173	0.3173920	-2.1936784	0.0046708	-0.0187964	-1.3624658
16.3749417	-0.6002317	4.2572619	-11.4733935	-0.2277173	0.3173920	-2.1936784	0.0046708	-0.0187964	-1.3624658
16.3749550	-0.6002317	4.2572619	-11.4733935	-0.2277173	0.3173920	-2.1936784	0.0046708	-0.0187964	-1.3624658
16.3749588	-0.6002317	4.2572619	-11.4733935	-0.2277173	0.3173920	-2.1936784	0.0046708	-0.0187964	-1.3624658
16.3749650	-0.6099341	4.8590643	-12.9529848	-0.2568834	0.3464444	-2.1532965	0.0003696	0.0218642	-1.5417678
16.3749722	-0.5551815	4.7269942	-13.1278599	-0.1242945	0.2544974	-2.1698665	0.0795949	0.0311724	-1.4813081
16.4746998	-0.5418553	4.7641812	-13.2688042	-0.1206708	0.2602652	-2.1654449	0.0754908	0.0397236	-1.4862289
16.5747021	-0.5362210	4.7965866	-13.4066240	-0.1168648	0.2647925	-2.1609356	0.0764668	0.0442828	-1.4909913
16.6753367	-0.5294559	4.8311239	-13.5548627	-0.1133142	0.2671724	-2.1565473	0.0763465	0.0462233	-1.4945819
16.7746821	-0.5217911	4.8651524	-13.7033095	-0.1102419	0.2669942	-2.1521670	0.0751115	0.0466753	-1.4988783
16.8746895	-0.5141505	4.8975174	-13.8448421	-0.1072611	0.2640916	-2.1475848	0.0744159	0.0492508	-1.5036105
16.9756480	-0.5057957	4.9312058	-13.9946765	-0.1037140	0.2588604	-2.1428383	0.0721203	0.0510938	-1.5126725
17.0752970	-0.4976875	4.9627534	-14.1382918	-0.0994060	0.2527431	-2.1382051	0.0697288	0.0518019	-1.5216610
17.1746652	-0.4890937	4.9952575	-14.2903653	-0.0947471	0.2473996	-2.1341875	0.0678485	0.0510081	-1.5272855
17.2747154	-0.4805637	5.0268877	-14.4421429	-0.0907585	0.2443303	-2.1307766	0.0662538	0.0471944	-1.5250440
17.3747003	-0.4724094	5.0569757	-14.5888825	-0.0882954	0.2443588	-2.1277371	0.0666577	0.0447942	-1.5176837
17.4747039	-0.4641981	5.0876948	-14.7398112	-0.0875320	0.2478394	-2.1250542	0.0705836	0.0404297	-1.5097210
17.5746632	-0.4567730	5.1169099	-14.8825332	-0.0879538	0.2545643	-2.1225574	0.0773595	0.0359912	-1.5061957
17.6747031	-0.4492712	5.1482214	-15.0327415	-0.0885079	0.2634104	-2.1202148	0.0842938	0.0323901	-1.5116191
17.7746959	-0.4416985	5.1804719	-15.1838472	-0.0877222	0.2723725	-2.1173184	0.0920892	0.0313625	-1.5267505
17.8746698	-0.4338392	5.2118503	-15.3287650	-0.0856460	0.2767215	-2.1124672	0.0993930	0.0386780	-1.5432698
17.9747512	-0.4245441	5.2448725	-15.4830678	-0.0825171	0.2749425	-2.1061370	0.1042268	0.0489395	-1.5591082
18.0746716	-0.4143753	5.2771851	-15.6390701	-0.0784676	0.2689366	-2.0990608	0.1049390	0.0573549	-1.5732539
18.1748378	-0.4040988	5.3068680	-15.7884802	-0.0737276	0.2602185	-2.0918660	0.1022171	0.0640637	-1.5808794
18.2746721	-0.3927798	5.3367607	-15.9466162	-0.0685384	0.2515134	-2.0850975	0.0979592	0.0696804	-1.5817398
18.3746737	-0.3810555	5.3651255	-16.1047790	-0.0631111	0.2463392	-2.0790637	0.0955751	0.0735471	-1.5783974
18.4746693	-0.3696267	5.3908714	-16.2546235	-0.0575446	0.2455205	-2.0732913	0.0973555	0.0730253	-1.5713793
18.5746655	-0.3574002	5.4170967	-16.4120799	-0.0525143	0.2487051	-2.0673928	0.1041190	0.0699931	-1.5664527
18.6746673	-0.3450846	5.4428415	-16.5691203	-0.0490533	0.2552489	-2.0612624	0.1131361	0.0663801	-1.5620595
18.7746711	-0.3332909	5.4674861	-16.7179781	-0.0476720	0.2670291	-2.0552056	0.1185863	0.0619363	-1.5601545
18.8746660	-0.3203183	5.4949855	-16.8741409	-0.0485398	0.2910257	-2.0487175	0.1175104	0.0600978	-1.5604763
18.9746578	-0.3052329	5.5263816	-17.0296595	-0.0498271	0.2809323	-2.0412686	0.1033916	0.0704758	-1.5665419
19.0746596	-0.2893771	5.5566338	-17.1861982	-0.0503226	0.2506253	-2.0336257	0.1023928	0.0923003	-1.5754785
19.1746793	-0.2735738	5.5804844	-17.3379478	-0.0472185	0.2052815	-2.0272537	0.1110382	0.1389706	-1.6024450
19.2757627	-0.2543830	5.5974875	-17.5029321	-0.0374919	0.1400896	-2.0247440	0.0917700	0.2059539	-1.6465430
19.3757612	-0.2333415	5.6025825	-17.6644072	-0.0190797	0.1015807	-2.0255352	0.0892268	0.2636549	-1.6836386
19.4769644	-0.2063293	5.5980046	-17.8382651	0.0078960	0.1202201	-2.0260363	0.1053991	0.3184204	-1.7159999
19.5746655	-0.1700726	5.5911529	-18.0143649	0.0413280	0.1543065	-2.0230350	0.1198095	0.3535603	-1.7403677
19.6746639	-0.1263279	5.5856964	-18.1812596	0.0781060	0.1898494	-2.0173508	0.1211848	0.3680354	-1.7533532
19.7746394	-0.0712342	5.5826546	-18.3553419	0.1137000	0.2440438	-2.0086431	0.1185853	0.3637542	-1.7491652
19.8746668	-0.0077739	5.5865251	-18.5250272	0.1442298	0.3037792	-1.9974804	0.1090315	0.3446383	-1.7394814
19.9746652	0.0594327	5.5987841	-18.6812547	0.1658379	0.3391717	-1.9905355	0.0888378	0.3255542	-1.7253988
20.0746570	0.1345032	5.6175037	-18.8405040	0.1751532	0.3466433	-1.9909421	0.0679856	0.3169832	-1.6981391
20.1768492	0.2108653	5.6375528	-18.9958984	0.1715607	0.3278872	-1.9978316	0.0551708	0.3155529	-1.6665827
20.2753828	0.2818622	5.6542749	-19.1420882	0.1574429	0.2829751	-2.0089796	0.0447382	0.3196611	-1.6423973
20.3746609	0.3516226	5.6661036	-19.2955291	0.1380605	0.2290908	-2.0198864	0.0355002	0.3221929	-1.6224347
20.4746588	0.4152366	5.6712511	-19.4503346	0.1195912	0.1893212	-2.0254506	0.0379353	0.3237683	-1.6109276
20.5746813	0.4706140	5.6714741	-19.5988172	0.1039123	0.1713750	-2.0262948	0.0424414	0.3273695	-1.6105022
20.6746639	0.5256678	5.6699986	-19.7568120	0.0903400	0.1770469	-2.0257896	0.0447009	0.3289877	-1.6206901
20.7750828	0.5795583	5.6706090	-19.9167594	0.0777517	0.2039511	-2.0265070	0.0407722	0.3278134	-1.6351196
20.8746455	0.6311120	5.6764655	-20.0696913	0.0649793	0.2429194	-2.0288797	0.0338060	0.3243899	-1.6447687
20.9752238	0.6864752	5.6898588	-20.2304219	0.0517353	0.2812251	-2.0321625	0.0290591	0.3232584	-1.6483931
21.0746706	0.7427669	5.7097124	-20.3902943	0.0371045	0.3077657	-2.0350833	0.0332775	0.3247240	-1.6443741
21.1746760	0.7958481	5.7324659	-20.5415154	0.0213693	0.3175089	-2.0365685	0.0446167	0.3259366	-1.6418582