# Time	Input
-4.6994929	0.0000000
-4.5996219	0.0000000
-4.4996488	0.0000000
-4.3997796	0.0000000
-4.2994422	0.0000000
-4.1997135	0.0000000
-4.0997542	0.0000000
-3.9996790	0.0000000
-3.8997868	0.0000000
-3.7996536	0.0000000
-3.6997847	0.0000000
-3.5997092	0.0000000
-3.4997187	0.0000000
-3.3997312	0.0000000
-3.2996675	0.0000000
-3.1996997	0.0000000
-3.0997005	0.0000000
-2.9996777	0.0000000
-2.8997356	0.0000000
-2.7997281	0.0000000
-2.6996731	0.0000000
-2.5997427	0.0000000
-2.4997780	0.0000000
-2.3997153	0.0000000
-2.2996406	0.0000000
-2.1997906	0.0000000
-2.0994972	0.0000000
-1.9996859	0.0000000
-1.8996964	0.0000000
-1.7996436	0.0000000
-1.6997330	0.0000000
-1.5996457	0.0000000
-1.4997302	0.0000000
-1.3997473	0.0000000
-1.2997307	0.0000000
-1.1997097	0.0000000
-1.0997130	0.0000000
-0.9997422	0.0000000
-0.8997391	0.0000000
-0.7997363	0.0000000
-0.6997146	0.0000000
-0.5996375	0.0000000
-0.4997325	0.0000000
-0.3996777	0.0000000
-0.2996278	0.0000000
-0.1997606	0.0000000
-0.0997699	0.0000000
0.0002726	-35.0000000
0.1003064	-35.0000000
0.2002284	-14.7084522
0.3002890	-12.1026678
0.4003318	-12.2091503
0.5002813	-12.6254110
0.6004229	-11.7708225
0.7003369	-11.1318779
0.8002266	-11.3849783
0.9003507	-10.8218889
1.0003750	-9.7068644
1.1002414	-8.8181963
1.2003103	-7.0768375
1.3002621	-4.8839459
1.4002240	-3.8835330
1.5003113	-2.7810733
1.6002540	-1.6905506
1.7002880	-1.4010681
1.8003011	-1.8202025
1.9002924	-2.9658053
2.0003039	-4.4437132
2.1002004	-5.1845860
2.2002176	-5.1478167
2.3003359	-4.6254663
2.4002038	-3.7141790
2.5002412	-3.0571537
2.6002580	-2.0672336
2.7002757	-0.6677101
2.8002729	0.8247155
2.9002394	2.3529463
3.0002870	3.8637130
3.1002552	3.1470082
3.2002634	2.1610773
3.3001979	0.3707418
3.4002135	-1.3788687
3.5004045	-2.1044610
3.6002647	-2.1116087
3.7002534	-1.7309611
3.8002870	-1.0533847
3.9002778	-0.1463878
4.0002383	0.1184244
4.1002519	0.4158589
4.2002790	0.3812699
4.3003412	0.1427861
4.4002698	0.3885644
4.5002386	0.7543296
4.6002309	1.3397764
4.7002852	1.9417635
4.8003087	2.3591056
4.9002532	2.6399484
5.0002655	2.8508978
5.1002708	2.9685364
5.2003023	2.8194728
5.3002332	2.4982686
5.4003732	2.5860102
5.5002993	3.5752206
5.6003085	4.9316106
5.7002568	5.4777498
5.8001884	6.5443950
5.9002130	7.2172589
6.0002918	6.7156534
6.1002419	6.4939122
6.2002534	5.9962187
6.3003167	5.5834703
6.4002373	5.2952380
6.5001723	5.3012509
6.6003236	5.5112429
6.7002161	5.9223819
6.8002132	6.3858972
6.9002824	6.8316569
7.0002836	7.4039402
7.1003341	8.0494194
7.2003310	8.4735394
7.3002785	8.6529551
7.4002368	8.7872505
7.5003290	9.0544262
7.6003162	9.3216667
7.7002698	9.0711336
7.8003464	8.0676184
7.9004516	6.7407551
8.0003858	6.5802202
8.1003592	6.5596766
8.2003622	7.3712511
8.3001687	8.5692415
8.4003725	10.0485125
8.5002276	11.2312393
8.6002803	11.1094513
8.7003149	10.4568758
8.8002975	9.5643072
8.9003361	9.8216944
9.0002289	10.5080357
9.1004659	11.4082193
9.2003551	11.8643284
9.3002540	11.8148069
9.4002829	11.2473612
9.5002860	10.6961308
9.6002793	10.3285341
9.7002783	10.5448132
9.8002642	10.7841597
9.9002532	10.7707338
10.0003405	9.9282522
10.1003092	9.2341375
10.2003080	9.4709415
10.3002770	10.8391266
10.4002335	12.6971436
10.5003195	14.3866243
10.6002429	14.1608696
10.7002537	13.6220551
10.8002378	12.7566605
10.9001994	12.2099867
11.0003182	11.9703455
11.1002220	12.4067287
11.2003602	13.1403894
11.3002168	13.7757282
11.4003310	13.6932545
11.5002913	13.1737633
11.6003510	12.6635427
11.7002790	12.3855724
11.8002281	12.4977217
11.9002650	13.1519680
12.0002821	13.6087408
12.1002586	13.8302402
12.2002757	13.8747711
12.3002916	14.0131836
12.4003392	14.2773380
12.5002972	14.4683876
12.6002852	15.4075003
12.7003366	16.4960098
12.8002345	17.3004055
12.9003359	16.8054943
13.0003377	15.6193390
13.1002644	13.9746675
13.2002250	14.4554710
13.3002235	15.0738153
13.4003251	16.1653919
13.5001925	16.7482357
13.6002186	16.7388744
13.7002893	16.4931011
13.8002747	16.4259129
13.9003325	17.0088406
14.0002409	18.2516117
14.1003067	19.4441662
14.2002975	20.5274982
14.3003077	21.3546124
14.4002819	21.0424004
14.5002680	19.4629707
14.6002401	18.3628712
14.7002716	18.1430244
14.8002844	18.7784767
14.9003072	19.6917992
15.0001935	20.2791767
15.1002844	20.3627911
15.2002353	20.2922611
15.3003128	20.4728203
15.4003315	21.3382740
15.5003423	21.5252686
15.6003272	21.6985474
15.7002959	21.8661976
15.8002340	21.7915459
15.9002888	21.6405640
16.0002708	22.2642555
16.1003295	23.4483356
16.2003126	24.1002102
16.3002598	24.0838776
16.4003034	23.6996498
16.5003013	22.7038002
16.6003164	21.8284607
16.7003325	22.5608387
16.8002452	22.9804440
16.9002803	23.6559277
17.0003571	23.9090061
17.1002780	22.8045063
17.2002724	21.6974869
17.3002821	21.6823196
17.4002555	22.2394028
17.5003876	23.5393581
17.6002778	24.5099525
17.7003866	23.8681698
17.8003372	22.8490753
17.9002783	22.8892803
18.0002527	23.7970486
18.1002839	25.5795593
18.2002842	26.3154106
18.3002870	24.6896725
18.4002998	23.1951790
18.5002404	22.8635979
18.6002319	23.6958981
18.7002104	25.4485664
18.8003694	26.6045723
18.9003226	26.7287598
19.0002301	24.9805717
19.1004155	24.7466240
19.2002980	26.7023144
19.3002995	28.7024269
19.4001946	30.0304089
19.5002427	30.8467579
19.6002125	30.0965462
19.7003192	29.4743137
19.8001994	30.7467537
19.9003011	32.7646751
20.0003295	32.8522415
20.1002642	31.6350536
20.2002250	31.6260605
20.3002857	32.2631760
20.4003090	32.9537506
20.5003082	32.9662170
20.6002522	32.0639877
20.7002683	32.3433189
20.8002442	32.6708870
20.9002598	34.9234047
21.0002483	35.0000000
21.1002747	35.0000000
21.2003110	35.0000000
21.3002652	35.0000000
21.4003758	35.0000000
21.5002627	35.0000000
21.6002662	35.0000000
21.7003085	35.0000000
21.8002499	35.0000000
21.9002637	35.0000000
22.0002936	35.0000000
22.1002580	35.0000000
22.2003215	35.0000000
22.3002378	35.0000000
22.4002429	35.0000000
22.5002668	35.0000000
22.6003016	35.0000000
22.7002086	35.0000000
22.8002993	35.0000000
22.9002834	35.0000000
23.0002583	35.0000000
23.1003195	35.0000000
23.2002931	35.0000000
23.3003149	35.0000000
23.4002657	35.0000000
23.5002706	35.0000000
23.6002872	35.0000000
23.7003392	35.0000000
23.8003681	35.0000000
23.9002903	35.0000000
24.0004193	35.0000000
24.1002834	35.0000000
24.2002860	35.0000000
24.3003341	35.0000000
24.4003732	35.0000000
24.5001892	35.0000000
24.6003011	35.0000000
24.7001853	35.0000000
24.8003077	35.0000000
24.9002680	35.0000000
25.0002957	35.0000000
25.1002212	35.0000000
25.2003249	35.0000000
25.3003479	35.0000000
25.4003126	35.0000000
25.5002022	35.0000000
25.6003080	35.0000000
25.7003384	35.0000000
25.8002033	35.0000000
25.9002204	35.0000000
26.0003057	35.0000000
26.1003103	35.0000000
26.2001820	35.0000000
26.3004357	35.0000000
26.4002655	35.0000000
26.5003487	35.0000000
26.6002793	35.0000000
26.7002260	35.0000000
26.8002491	35.0000000
26.9002798	35.0000000
27.0002268	35.0000000
27.1003098	35.0000000
27.2002765	35.0000000
27.3002371	35.0000000
27.4002995	35.0000000
27.5001603	35.0000000
27.6002463	35.0000000
27.7002747	35.0000000
27.8003553	35.0000000
27.9003264	35.0000000
28.0002829	35.0000000
28.1003177	35.0000000
28.2002092	35.0000000
28.3002568	35.0000000
28.4003190	35.0000000
28.5003302	35.0000000
28.6001976	35.0000000
28.7003297	35.0000000
28.8002783	35.0000000
28.9002020	35.0000000
29.0003220	35.0000000
29.1004419	35.0000000
29.2002593	35.0000000
29.3003054	35.0000000
29.4002527	35.0000000
29.5003039	35.0000000
29.6004890	35.0000000
29.7003489	35.0000000
29.8002199	35.0000000
29.9002824	35.0000000
29.9402867	0.0000000
