# Time	Input
-4.6997258	0.0000000
-4.5996219	0.0000000
-4.4997665	0.0000000
-4.3997645	0.0000000
-4.2991867	0.0000000
-4.1997855	0.0000000
-4.0998034	0.0000000
-3.9996867	0.0000000
-3.8999304	0.0000000
-3.7997947	0.0000000
-3.6998369	0.0000000
-3.5997343	0.0000000
-3.4997143	0.0000000
-3.3997507	0.0000000
-3.2998372	0.0000000
-3.1997944	0.0000000
-3.0997883	0.0000000
-2.9998124	0.0000000
-2.8998646	0.0000000
-2.7997092	0.0000000
-2.6998359	0.0000000
-2.5997125	0.0000000
-2.4998093	0.0000000
-2.3997417	0.0000000
-2.2996552	0.0000000
-2.1997601	0.0000000
-2.0996887	0.0000000
-1.9996718	0.0000000
-1.8997494	0.0000000
-1.7997335	0.0000000
-1.6997780	0.0000000
-1.5997880	0.0000000
-1.4996959	0.0000000
-1.3998492	0.0000000
-1.2998725	0.0000000
-1.1997673	0.0000000
-1.0998170	0.0000000
-0.9998748	0.0000000
-0.8997350	0.0000000
-0.7998203	0.0000000
-0.6997519	0.0000000
-0.5998341	0.0000000
-0.4998546	0.0000000
-0.3998418	0.0000000
-0.2998469	0.0000000
-0.1997432	0.0000000
-0.0998912	0.0000000
0.0001426	35.0000000
0.1002598	35.0000000
0.2001068	24.1847210
0.3001382	13.8929148
0.4002529	5.7080417
0.5001682	4.7157927
0.6002186	5.4094019
0.7002327	6.3154149
0.8002186	7.4409132
0.9003320	7.3233614
1.0002854	6.6701984
1.1002701	6.7804737
1.2001321	6.6523609
1.3001792	7.2062058
1.4000819	8.8163872
1.5001475	9.7661562
1.6003069	10.4202766
1.7003325	11.0104876
1.8001554	10.8558903
1.9002245	10.5754805
2.0001789	9.8538809
2.1002307	8.5925407
2.2001147	7.2784352
2.3002043	6.3717837
2.4002068	6.5559444
2.5001823	7.3595562
2.6001556	9.0064640
2.7001618	11.0077372
2.8001946	12.2616730
2.9002473	12.6800632
3.0000986	11.5594292
3.1001777	11.6987734
3.2002196	10.7897758
3.3002053	10.2060022
3.4001349	10.6487885
3.5002578	10.3193579
3.6001997	9.7395248
3.7001649	9.3377972
3.8001582	8.8438120
3.9001889	8.4807472
4.0003149	8.6282797
4.1000727	8.6261683
4.2002947	8.8221350
4.3003067	9.3405542
4.4002401	9.9482584
4.5000947	10.9423122
4.6002079	12.1826334
4.7002158	13.3169346
4.8001533	13.7252827
4.9001994	13.1613855
5.0001121	12.2788105
5.1001759	11.4751778
5.2003382	11.1038752
5.3002245	10.7884235
5.4001830	11.3151894
5.5002051	11.5478134
5.6001792	11.5792341
5.7001464	12.0659513
5.8001940	12.6869612
5.9002680	13.4160881
6.0002158	14.3318214
6.1001428	14.6566486
6.2001303	14.3639994
6.3001385	14.2251234
6.4000868	14.3064585
6.5000998	14.7129068
6.6001820	15.2030134
6.7001303	15.6338854
6.8001751	15.8374615
6.9001477	15.5277739
7.0002030	14.9952917
7.1003382	14.9448090
7.2002255	15.1962214
7.3002176	15.6267557
7.4002455	16.2501297
7.5001943	16.9408360
7.6002222	17.2409725
7.7002455	17.3322697
7.8001802	17.3546772
7.9004134	17.9452381
8.0001825	18.1596355
8.1001582	18.1212749
8.2001923	17.6413670
8.3002542	16.9972038
8.4002708	16.8326931
8.5001546	17.3860531
8.6001047	18.5746632
8.7003190	20.1501789
8.8001229	21.5219707
8.9003133	21.8985672
9.0002212	21.2082767
9.1003356	19.6549892
9.2002642	18.5848579
9.3001710	18.8013611
9.4002033	19.7797585
9.5001656	21.1108818
9.6002509	21.9292870
9.7000735	22.0843925
9.8002143	21.1602726
9.9001539	20.0999432
10.0001684	19.3166981
10.1001283	19.4148254
10.2001603	19.8080063
10.3001359	20.0937042
10.4001221	20.4545212
10.5001649	21.2302170
10.6001999	22.0385017
10.7002086	22.5095882
10.8002573	22.9533806
10.9001705	23.1476555
11.0002371	23.4305172
11.1000755	23.6967316
11.2001879	23.3555851
11.3000387	23.3984509
11.4001713	23.2829762
11.5002266	22.9447651
11.6003000	22.7360573
11.7001475	22.9207134
11.8001009	23.3088474
11.9002301	24.2520809
12.0003141	25.0714016
12.1003418	25.7092762
12.2002803	25.8440475
12.3001487	25.7907658
12.4002952	25.4669552
12.5002022	24.8667145
12.6002924	24.6893158
12.7002222	24.8536015
12.8001664	25.4611187
12.9002368	26.2649307
13.0001508	27.1628666
13.1001572	27.5769157
13.2002755	27.4998455
13.3001946	27.5614300
13.4003203	28.0836926
13.5002706	28.5797672
13.6001029	28.6211205
13.7002675	28.3767872
13.8002532	27.8658161
13.9001597	28.2883205
14.0001037	29.9541588
14.1001513	31.4935265
14.2002102	32.5610847
14.3002737	33.0755997
14.4001093	32.7259979
14.5001664	31.3793087
14.6001439	30.1028728
14.7001910	29.3753071
14.8002301	30.1804447
14.9001851	31.8901005
15.0002703	33.3410110
15.1001533	34.1931190
15.2001075	34.0710869
15.3001623	33.5775681
15.4001874	33.0766602
15.5003671	32.9454422
15.6001521	33.0630493
15.7002125	33.4601555
15.8001580	33.6628189
15.9002035	34.0580063
16.0002355	34.2384796
16.1001989	34.9459305
16.2001953	35.0000000
16.3001572	35.0000000
16.4001718	35.0000000
16.5001446	35.0000000
16.6001467	35.0000000
16.7001702	35.0000000
16.8001152	35.0000000
16.9001167	35.0000000
17.0002726	35.0000000
17.1001828	35.0000000
17.2002015	35.0000000
17.3003315	35.0000000
17.4001677	35.0000000
17.5002250	35.0000000
17.6001449	35.0000000
17.7002332	35.0000000
17.8001846	35.0000000
17.9002409	35.0000000
18.0002345	35.0000000
18.1001172	35.0000000
18.2001103	35.0000000
18.3002115	35.0000000
18.4001050	35.0000000
18.5002478	35.0000000
18.6002803	35.0000000
18.7001349	35.0000000
18.8001917	35.0000000
18.9002028	35.0000000
19.0001874	35.0000000
19.1002417	35.0000000
19.2001257	35.0000000
19.3001613	35.0000000
19.4001134	35.0000000
19.5001953	35.0000000
19.6002353	35.0000000
19.7001892	35.0000000
19.8001510	35.0000000
19.9001536	35.0000000
20.0002294	35.0000000
20.1001603	35.0000000
20.2001390	35.0000000
20.3000957	35.0000000
20.4002143	35.0000000
20.5002583	35.0000000
20.6002854	35.0000000
20.7002327	35.0000000
20.8001544	35.0000000
20.9001224	35.0000000
21.0002555	35.0000000
21.1001288	35.0000000
21.2002112	35.0000000
21.3001541	35.0000000
21.4001523	35.0000000
21.5002406	35.0000000
21.6002381	35.0000000
21.7001672	35.0000000
21.8001388	35.0000000
21.9002575	35.0000000
22.0002611	35.0000000
22.1002102	35.0000000
22.2001469	35.0000000
22.3001715	35.0000000
22.4002476	35.0000000
22.5002747	35.0000000
22.6001349	35.0000000
22.7002839	35.0000000
22.8003092	35.0000000
22.9003095	35.0000000
23.0001628	35.0000000
23.1002598	35.0000000
23.2002977	35.0000000
23.3001618	35.0000000
23.4002217	35.0000000
23.5001495	35.0000000
23.6002404	35.0000000
23.7002161	35.0000000
23.8002396	35.0000000
23.9002836	35.0000000
24.0003610	35.0000000
24.1002125	35.0000000
24.2002094	35.0000000
24.3001800	35.0000000
24.4000735	35.0000000
24.5001075	35.0000000
24.6002493	35.0000000
24.7001923	35.0000000
24.8001754	35.0000000
24.9001958	35.0000000
25.0003187	35.0000000
25.1001838	35.0000000
25.2001508	35.0000000
25.3001766	35.0000000
25.4001971	35.0000000
25.5002588	35.0000000
25.6001254	35.0000000
25.7002734	35.0000000
25.8001620	35.0000000
25.9001203	35.0000000
26.0001874	35.0000000
26.1001597	35.0000000
26.2003146	35.0000000
26.3003779	35.0000000
26.4002862	35.0000000
26.5002348	35.0000000
26.6001426	35.0000000
26.7001295	35.0000000
26.8002563	35.0000000
26.9002191	35.0000000
27.0003177	35.0000000
27.1001597	35.0000000
27.2002107	35.0000000
27.3002445	35.0000000
27.4001318	35.0000000
27.5002214	35.0000000
27.6001452	35.0000000
27.7000927	35.0000000
27.8002378	35.0000000
27.9001861	35.0000000
28.0001324	35.0000000
28.1001889	35.0000000
28.2001928	35.0000000
28.3001613	35.0000000
28.4001316	35.0000000
28.5001562	35.0000000
28.6001651	35.0000000
28.7003615	35.0000000
28.8002880	35.0000000
28.9002089	35.0000000
29.0002573	35.0000000
29.1002755	35.0000000
29.2002609	35.0000000
29.3001682	35.0000000
29.4002207	35.0000000
29.5001869	35.0000000
29.6003789	35.0000000
29.7002417	35.0000000
29.8001247	35.0000000
29.9001357	35.0000000
29.9402926	0.0000000
