# Time	Input
-4.5996180	0.0000000
-4.4997043	0.0000000
-4.3997617	0.0000000
-4.2996321	0.0000000
-4.1998730	0.0000000
-4.0998438	0.0000000
-3.9997573	0.0000000
-3.8997583	0.0000000
-3.7997245	0.0000000
-3.6996892	0.0000000
-3.5997860	0.0000000
-3.4997069	0.0000000
-3.3996667	0.0000000
-3.2997622	0.0000000
-3.1999232	0.0000000
-3.0997005	0.0000000
-2.9996813	0.0000000
-2.8997481	0.0000000
-2.7997686	0.0000000
-2.6997967	0.0000000
-2.5997834	0.0000000
-2.4995973	0.0000000
-2.3993597	0.0000000
-2.2998385	0.0000000
-2.1998523	0.0000000
-2.0997816	0.0000000
-1.9996611	0.0000000
-1.8998531	0.0000000
-1.7995919	0.0000000
-1.6997071	0.0000000
-1.5998170	0.0000000
-1.4996833	0.0000000
-1.3996449	0.0000000
-1.2998738	0.0000000
-1.1998584	0.0000000
-1.0997261	0.0000000
-0.9996124	0.0000000
-0.8998019	0.0000000
-0.7997793	0.0000000
-0.6997425	0.0000000
-0.5998280	0.0000000
-0.4996201	0.0000000
-0.3997629	0.0000000
-0.2997706	0.0000000
-0.1994376	0.0000000
-0.0998195	0.0000000
0.0003036	-1.0986381
0.1001052	-1.2270061
0.2003937	-2.1516838
0.3001556	-1.4976988
0.4004019	0.7494239
0.5001313	1.3569926
0.6003653	1.9170936
0.7004785	2.1919115
0.8001815	2.1052799
0.9002701	1.9909469
1.0001641	1.9734751
1.1002639	1.8490810
1.2001812	1.8422949
1.3003919	1.9086705
1.4002476	2.1515572
1.5001984	2.1795025
1.6002412	1.8325163
1.7001761	1.3865182
1.8001428	0.8008525
1.9001964	0.4467012
2.0003379	0.4157135
2.1002217	0.9418138
2.2002422	1.8483878
2.3001843	3.2519865
2.4003156	4.4446578
2.5003080	4.7172952
2.6003318	4.1554265
2.7003858	3.1166260
2.8003139	2.0821805
2.9002330	1.6178422
3.0002102	1.3881536
3.1001664	1.6748587
3.2002383	2.2249615
3.3003146	3.4104033
3.4003589	4.6243029
3.5003377	5.1730399
3.6001585	4.9227476
3.7002483	4.3386121
3.8003021	3.5064495
3.9001580	2.7837763
4.0001795	2.1710472
4.1002299	2.2592576
4.2002186	3.1549022
4.3002621	4.3540816
4.4004219	5.0702128
4.5002798	5.2239180
4.6002665	4.7009344
4.7001544	3.8774545
4.8002191	3.2996197
4.9003415	3.2065084
5.0000837	3.3920004
5.1002291	3.5994148
5.2002629	3.8070650
5.3005030	3.9429643
5.4002312	3.9138210
5.5002424	3.5250630
5.6002360	3.0324116
5.7002972	2.8225765
5.8003387	3.5764730
5.9002957	4.9396405
6.0004342	5.8250313
6.1002765	5.9751697
6.2002685	5.2771864
6.3001608	4.0999494
6.4003267	2.9381180
6.5003676	2.7564735
6.6001910	3.5696387
6.7002801	5.1734366
6.8003543	6.6793900
6.9002033	7.1529341
7.0004058	6.8050103
7.1002150	5.8780937
7.2001851	4.7634177
7.3002644	3.8773422
7.4002639	3.4650798
7.5001715	3.7593234
7.6001764	4.1765924
7.7003940	4.8292608
7.8002716	5.5460091
7.9001884	6.1598663
8.0002481	6.5653853
8.1001129	6.5467200
8.2000376	6.2810435
8.3001774	5.9812751
8.4002132	5.3670096
8.5001777	5.3166819
8.6002132	5.5677633
8.7002281	6.2651906
8.8002076	6.5737596
8.9001313	6.4346514
9.0002486	6.1564202
9.1002020	5.6484694
9.2004198	5.2478223
9.3002560	5.1508579
9.4001659	5.5187206
9.5002831	6.2052732
9.6002048	6.7196584
9.7002130	6.9761209
9.8003589	6.8888483
9.9002309	6.6839504
10.0001907	6.6454515
10.1001551	6.9811044
10.2003172	7.0159769
10.3001516	7.2679043
10.4003553	7.3912935
10.5002729	7.3756957
10.6001869	7.1307950
10.7001275	6.5737448
10.8002030	6.1682959
10.9002657	5.7666111
11.0002762	5.7264814
11.1002921	6.1200185
11.2002621	6.5601654
11.3001907	7.2196870
11.4002051	8.1158695
11.5001334	8.8969889
11.6002537	9.4410982
11.7001700	9.6356592
11.8002650	9.3623056
11.9003881	8.7087212
12.0001969	8.1860714
12.1002516	7.9257116
12.2002184	8.1103220
12.3002696	8.6320457
12.4002391	9.2252970
12.5003643	9.2067909
12.6002422	9.1344452
12.7002345	8.8968878
12.8002688	8.6539316
12.9002683	9.2995462
13.0002250	10.0638971
13.1001367	10.2213364
13.2002642	9.9592896
13.3001608	9.4476328
13.4002452	8.9752226
13.5001234	8.7724543
13.6003958	8.7343655
13.7002596	8.9850130
13.8004032	9.5014257
13.9002079	10.1022215
14.0002959	10.4449759
14.1002299	10.7782240
14.2002327	11.4794483
14.3002424	11.9776316
14.4001597	11.6448870
14.5004234	10.9955282
14.6001536	10.4888000
14.7001585	9.9205122
14.8003011	9.1627064
14.9001810	8.6817684
15.0003625	9.0493326
15.1001185	9.2585964
15.2001871	9.0201740
15.3001623	9.0475502
15.4002307	9.2974567
15.5002519	9.1332312
15.6002184	8.7406006
15.7002788	8.3392248
15.8002793	8.3024578
15.9002040	8.9005632
16.0002493	9.8672209
16.1004552	10.1150055
16.2001137	9.2463770
16.3002642	8.6410055
16.4004096	8.6506891
16.5002371	9.3199615
16.6002243	9.5968008
16.7001569	9.5410929
16.8002936	9.6719875
16.9003238	9.6361856
17.0001882	9.7157688
17.1001590	10.0112648
17.2001492	10.3570747
17.3001347	10.5830946
17.4003036	11.2455969
17.5004541	11.9713354
17.6002719	12.5387735
17.7001505	12.7816019
17.8003177	12.6135025
17.9002294	11.7829361
18.0002470	10.5321131
18.1002179	9.2477093
18.2003302	8.5556440
18.3002801	8.6452208
18.4002524	9.2903395
18.5001912	10.5076599
18.6002028	11.6436710
18.7002373	12.4246950
18.8001989	13.4482231
18.9001597	14.0599279
19.0002499	14.1566648
19.1003515	13.9552307
19.2002470	13.0559826
19.3001723	11.1613092
19.4001802	10.9444199
19.5004887	10.9990187
19.6002450	11.8046598
19.7002368	13.1589870
19.8002130	14.6021347
19.9002181	15.2180452
20.0001196	14.9627886
20.1003689	14.3471775
20.2002135	13.6554632
20.3002171	13.4420710
20.4004145	13.6979027
20.5003410	14.1879206
20.6001994	14.2532282
20.7002250	13.9810534
20.8002811	13.7016048
20.9003318	13.9548855
21.0001623	14.6785593
21.1002186	15.2589636
21.2001805	15.6125717
21.3004518	15.6725731
21.4001408	15.4261360
21.5002893	15.1292324
21.6002578	14.9988632
21.7002880	14.9226913
21.8002191	14.7561588
21.9002271	14.6485157
22.0001731	14.6277409
22.1003968	14.6669493
22.2002455	14.8505611
22.3002906	15.3161583
22.4004175	15.9270706
22.5003113	16.2200985
22.6001856	16.4474659
22.7001073	16.5411568
22.8000968	16.6219711
22.9002452	16.4846134
23.0002921	16.4079723
23.1001480	16.4898701
23.2002140	16.4513016
23.3003072	16.2192421
23.4001920	15.8533192
23.5002580	15.5672388
23.6001562	15.4101324
23.7002092	15.3809986
23.8002668	15.5409365
23.9003738	16.0637207
24.0002860	16.9113560
24.1002340	17.6135235
24.2002747	18.2608738
24.3001869	18.9533081
24.4003011	19.1785870
24.5002122	18.7284145
24.6002122	18.2137489
24.7004047	17.9215069
24.8002237	17.6504097
24.9001687	17.2908955
25.0001805	17.5748386
25.1002173	17.8676701
25.2003400	18.2662048
25.3002399	18.3756390
25.4002911	18.1536999
25.5001951	17.8483734
25.6001416	17.7768841
25.7002294	17.6656704
25.8001892	17.4704323
25.9002719	17.7008762
26.0003228	18.1413212
26.1002212	18.8583832
26.2003663	19.6435032
26.3002063	20.3664799
26.4001861	20.6294594
26.5002033	20.7674007
26.6002429	20.6822300
26.7001938	20.3527737
26.8004045	19.5958652
26.9001751	18.8981972
27.0001946	17.9121666
27.1001674	17.2129631
27.2003364	17.2096348
27.3001347	17.4897480
27.4003154	18.0602551
27.5002422	18.6763401
27.6002222	18.9899597
27.7001864	19.2001419
27.8002836	19.3179913
27.9001352	19.8045597
28.0001656	19.7525311
28.1001935	20.0629349
28.2001480	20.6354179
28.3001672	20.6730919
28.4002286	20.7451763
28.5002097	21.0652084
28.6002273	21.1017799
28.7003028	21.3481750
28.8002627	21.3664379
28.9001820	21.1363125
29.0002527	20.6087685
29.1003679	20.6521530
29.2002724	20.5568180
29.3003402	20.7967339
29.4002417	21.5958900
29.5002447	22.3733044
29.6004349	22.7100544
29.7001910	22.9289246
29.8001779	22.7051620
29.9001690	22.6658287
29.9528812	0.0000000
