# Time	x	y	z	roll	pitch	yaw	vx	vy	vz	
-4.5277550	-0.0000010	0.0000163	-0.3021267	-0.1824680	-0.1590789	2.0661466	0.0009560	-0.0006483	0.0018229
-4.4277599	-0.0000823	0.0004244	-0.3052351	-0.1780762	-0.1657919	2.0624807	0.0085680	-0.0038613	0.0095412
-4.3277130	-0.0004494	0.0018352	-0.3067706	-0.1759860	-0.1775648	2.0623097	0.0268310	-0.0088403	0.0198901
-4.2277399	-0.0012966	0.0048822	-0.2980590	-0.1760363	-0.1877095	2.0656102	0.0464879	-0.0156135	0.0379470
-4.1277181	-0.0022970	0.0089855	-0.3031935	-0.1789989	-0.1955623	2.0708036	0.0574469	-0.0225425	0.0563638
-4.0276063	-0.0030393	0.0130068	-0.2928916	-0.1853527	-0.2003369	2.0748477	0.0517844	-0.0281023	0.0770260
-3.9277606	-0.0029400	0.0158926	-0.2902330	-0.1926975	-0.2001825	2.0756869	0.0317387	-0.0306171	0.0841016
-3.8277245	-0.0019359	0.0170550	-0.2916058	-0.1989585	-0.1970344	2.0728946	0.0094003	-0.0268992	0.0735832
-3.7277637	-0.0006093	0.0169390	-0.2906203	-0.2023810	-0.1933926	2.0682989	-0.0017928	-0.0188661	0.0449366
-3.6277445	0.0004819	0.0168431	-0.2879628	-0.2019534	-0.1892044	2.0644639	-0.0002222	-0.0095992	0.0047631
-3.5277271	0.0009156	0.0177456	-0.2860479	-0.1981418	-0.1858437	2.0634070	0.0082246	-0.0020521	-0.0329499
-3.4277676	0.0007747	0.0198919	-0.2903036	-0.1927993	-0.1838545	2.0651656	0.0170588	-0.0001908	-0.0534037
-3.3277599	0.0003868	0.0228156	-0.2893861	-0.1885104	-0.1809906	2.0683090	0.0229255	-0.0040981	-0.0495568
-3.2277371	0.0003315	0.0264557	-0.2973555	-0.1863463	-0.1763866	2.0708452	0.0245956	-0.0112085	-0.0368144
-3.1277704	0.0007710	0.0295062	-0.2963300	-0.1862582	-0.1703623	2.0710706	0.0217172	-0.0201444	-0.0127032
-3.0277112	0.0021955	0.0325928	-0.3050524	-0.1874762	-0.1661645	2.0683703	0.0120033	-0.0261761	0.0017380
-2.9277046	0.0043101	0.0343239	-0.3040016	-0.1885894	-0.1679280	2.0634422	0.0017193	-0.0294294	0.0116853
-2.8277565	0.0067714	0.0352009	-0.3016616	-0.1886667	-0.1760657	2.0580292	-0.0039833	-0.0295845	0.0092062
-2.7277222	0.0094069	0.0361027	-0.2995704	-0.1877824	-0.1895483	2.0544855	-0.0007202	-0.0286888	0.0020410
-2.6277202	0.0117721	0.0377242	-0.2980281	-0.1867972	-0.2063801	2.0543598	0.0098414	-0.0292608	-0.0032669
-2.5277317	0.0136297	0.0401313	-0.2914978	-0.1868270	-0.2225699	2.0574984	0.0208094	-0.0316674	0.0023100
-2.4277473	0.0156698	0.0433057	-0.2961716	-0.1884414	-0.2311498	2.0621409	0.0221813	-0.0330483	0.0064124
-2.3277798	0.0176656	0.0457133	-0.2894446	-0.1912131	-0.2289435	2.0657306	0.0127294	-0.0343668	0.0208727
-2.2277535	0.0206697	0.0471673	-0.2939415	-0.1937140	-0.2184186	2.0658774	-0.0051531	-0.0332281	0.0196617
-2.1277550	0.0239437	0.0473229	-0.2919698	-0.1962053	-0.2011204	2.0624285	-0.0150550	-0.0309892	0.0131313
-2.0277281	0.0268446	0.0478349	-0.2970413	-0.1946409	-0.1791737	2.0581684	-0.0080020	-0.0263396	-0.0034142
-1.9277553	0.0290201	0.0488884	-0.2910588	-0.1932648	-0.1608033	2.0547896	0.0139384	-0.0243934	-0.0117084
-1.8277824	0.0302662	0.0522550	-0.2889094	-0.1924801	-0.1456747	2.0537363	0.0373943	-0.0253243	-0.0201385
-1.7276884	0.0308641	0.0576618	-0.2933973	-0.1908991	-0.1379432	2.0547327	0.0437805	-0.0253898	-0.0309353
-1.6277573	0.0318339	0.0626410	-0.2953531	-0.1899319	-0.1408216	2.0562946	0.0289572	-0.0250253	-0.0396413
-1.5277791	0.0338653	0.0656427	-0.2980915	-0.1882445	-0.1531078	2.0564441	-0.0008038	-0.0250987	-0.0449835
-1.4277443	0.0373856	0.0664485	-0.3041239	-0.1874225	-0.1737123	2.0542754	-0.0347992	-0.0290386	-0.0359327
-1.3277809	0.0421552	0.0641792	-0.3008631	-0.1874444	-0.1971172	2.0507200	-0.0475162	-0.0355397	-0.0050757
-1.2277524	0.0472384	0.0621608	-0.2990150	-0.1892099	-0.2156008	2.0482590	-0.0329808	-0.0408371	0.0207312
-1.1277532	0.0519043	0.0618311	-0.3035682	-0.1911252	-0.2238321	2.0480930	-0.0031121	-0.0406575	0.0174532
-1.0276611	0.0548586	0.0638216	-0.3000986	-0.1916796	-0.2213453	2.0489117	0.0196358	-0.0366467	0.0060156
-0.9277051	0.0564661	0.0673323	-0.2939249	-0.1917802	-0.2091509	2.0492567	0.0305323	-0.0309510	-0.0012140
-0.8277069	0.0575845	0.0711179	-0.2917490	-0.1927740	-0.1904348	2.0484625	0.0308116	-0.0269622	-0.0048740
-0.7275768	0.0587285	0.0751334	-0.2921392	-0.1940656	-0.1708683	2.0471503	0.0277613	-0.0250074	-0.0171253
-0.6277491	0.0602129	0.0785370	-0.2912112	-0.1944024	-0.1520841	2.0455282	0.0184657	-0.0251401	-0.0329906
-0.5277583	0.0626687	0.0797831	-0.2867267	-0.1938597	-0.1413987	2.0431852	-0.0017078	-0.0279479	-0.0324088
-0.4277619	0.0657233	0.0821481	-0.2965224	-0.1941781	-0.1418431	2.0400729	-0.0197258	-0.0311195	-0.0256047
-0.3277586	0.0696424	0.0822117	-0.2982327	-0.1953326	-0.1508927	2.0377280	-0.0205178	-0.0317241	-0.0141421
-0.2277732	0.0729419	0.0825063	-0.2987010	-0.1948211	-0.1648305	2.0372242	-0.0058563	-0.0260805	-0.0248538
-0.1277686	0.0751203	0.0838105	-0.2969597	-0.1912338	-0.1782025	2.0377060	0.0123481	-0.0178770	-0.0443198
-0.0277530	0.0760902	0.0874697	-0.3018911	-0.1863344	-0.1871337	2.0381777	0.0269382	-0.0123978	-0.0571083
0.0722478	0.0760391	0.0918138	-0.3007971	-0.1827775	-0.1909761	2.0384669	0.0355115	-0.0165218	-0.0481766
0.1722253	0.0770890	0.0965445	-0.3031935	-0.1831707	-0.1880855	2.0375615	0.0263298	-0.0279066	-0.0356347
0.2722801	0.0774990	0.0983343	-0.2900655	-0.1849981	-0.1834375	2.0313393	0.0007655	-0.0245507	-0.0122403
0.3722611	0.0803383	0.0988312	-0.3017884	-0.1880698	-0.1827031	2.0230408	-0.0260415	-0.0069204	-0.0100654
0.4724518	0.0819035	0.0952857	-0.2919698	-0.1910411	-0.1862665	2.0151824	-0.0455072	-0.0051301	0.0043978
0.5722225	0.0839701	0.0911851	-0.2879896	-0.1942317	-0.1913073	2.0090760	-0.0492863	-0.0039989	0.0028388
0.6722509	0.0863243	0.0871543	-0.2874043	-0.1957709	-0.1967630	2.0030829	-0.0441089	-0.0056646	-0.0054901
0.7722509	0.0886616	0.0844648	-0.2889094	-0.1960664	-0.1999956	1.9969354	-0.0305802	-0.0107131	-0.0140196
0.8722470	0.0906880	0.0837723	-0.2893498	-0.1963539	-0.2017584	1.9920866	-0.0074627	-0.0159607	-0.0218325
0.9722230	0.0927794	0.0851065	-0.2942027	-0.1961821	-0.1980512	1.9872062	0.0080778	-0.0202566	-0.0322783
1.0722493	0.0945921	0.0876485	-0.2900051	-0.1949780	-0.1944974	1.9817873	0.0118081	-0.0255003	-0.0338021
1.1722089	0.0972571	0.0899356	-0.2938320	-0.1923474	-0.1938758	1.9746881	-0.0021812	-0.0296034	-0.0410084
1.2723341	0.1009998	0.0911919	-0.2971546	-0.1887831	-0.1966788	1.9657588	-0.0189540	-0.0330152	-0.0478677
1.3722412	0.1051295	0.0915568	-0.2973348	-0.1850949	-0.2001879	1.9563097	-0.0242430	-0.0348221	-0.0532605
1.4722289	0.1091102	0.0923873	-0.2984441	-0.1824134	-0.2015078	1.9478103	-0.0111261	-0.0386590	-0.0562926
1.5723822	0.1129691	0.0947436	-0.2973022	-0.1817295	-0.1993342	1.9415907	0.0083503	-0.0459067	-0.0513646
1.6722184	0.1171173	0.0984910	-0.2962382	-0.1837132	-0.1946071	1.9369835	0.0196627	-0.0539152	-0.0383798
1.7723538	0.1224735	0.1025824	-0.2983684	-0.1878765	-0.1901104	1.9322898	0.0114325	-0.0630118	-0.0191183
1.8722783	0.1287039	0.1049074	-0.2999187	-0.1928033	-0.1885267	1.9255333	-0.0124568	-0.0697625	-0.0031311
1.9723026	0.1362552	0.1045011	-0.2958890	-0.1968420	-0.1880229	1.9161402	-0.0380263	-0.0734289	0.0082024
2.0723983	0.1445041	0.1028471	-0.2968586	-0.1984676	-0.1885147	1.9057153	-0.0458642	-0.0719881	-0.0019950
2.1724365	0.1521091	0.1014131	-0.2953338	-0.1978239	-0.1870384	1.8966498	-0.0321371	-0.0672629	-0.0172377
2.2722542	0.1592193	0.1014290	-0.2911978	-0.1962045	-0.1808211	1.8907953	-0.0068330	-0.0583178	-0.0295964
2.3722813	0.1648203	0.1041594	-0.2950332	-0.1951287	-0.1692093	1.8874982	0.0111921	-0.0517910	-0.0393695
2.4722742	0.1705447	0.1057408	-0.2893244	-0.1945952	-0.1630199	1.8844742	0.0097355	-0.0540657	-0.0373195
2.5722691	0.1768862	0.1079052	-0.2903669	-0.1940246	-0.1626816	1.8786899	-0.0058536	-0.0640071	-0.0419232
2.6723917	0.1851011	0.1079627	-0.2893160	-0.1923630	-0.1686753	1.8696237	-0.0258126	-0.0780373	-0.0464031
2.7721812	0.1951815	0.1075374	-0.2899290	-0.1887429	-0.1788252	1.8581771	-0.0363078	-0.0915921	-0.0505177
2.8722657	0.2048536	0.1072456	-0.2895995	-0.1871725	-0.1909972	1.8495564	-0.0317273	-0.0995109	-0.0510335
2.9722555	0.2157794	0.1079690	-0.2903127	-0.1869169	-0.1998146	1.8425818	-0.0234276	-0.1050903	-0.0451792
3.0722739	0.2276598	0.1092092	-0.2950310	-0.1894291	-0.2020785	1.8375452	-0.0208777	-0.1058468	-0.0393854
3.1722365	0.2380499	0.1103372	-0.2954348	-0.1938112	-0.1979421	1.8337374	-0.0258132	-0.1042873	-0.0353617
3.2724150	0.2487935	0.1111165	-0.2950646	-0.1977678	-0.1887344	1.8291520	-0.0271669	-0.0971011	-0.0381812
3.3724147	0.2590340	0.1119839	-0.2919698	-0.2000308	-0.1775875	1.8233819	-0.0195040	-0.0900611	-0.0433434
3.4724157	0.2682041	0.1139472	-0.2957918	-0.1985406	-0.1654220	1.8180199	-0.0021697	-0.0895001	-0.0517212
3.5722342	0.2784032	0.1167535	-0.2942908	-0.1964569	-0.1578705	1.8130036	0.0204013	-0.0963778	-0.0473972
3.6722281	0.2888069	0.1211374	-0.2930252	-0.1948379	-0.1556563	1.8084757	0.0342539	-0.1061435	-0.0385925
3.7722358	0.2995154	0.1247682	-0.2889483	-0.1941516	-0.1603248	1.8032661	0.0270160	-0.1178921	-0.0287583
3.8722580	0.3115185	0.1298250	-0.2899825	-0.1939537	-0.1716002	1.7965071	0.0082855	-0.1282794	-0.0277357
3.9722726	0.3249431	0.1314922	-0.2848259	-0.1937740	-0.1861114	1.7887564	-0.0113938	-0.1373469	-0.0247409
4.0723059	0.3391780	0.1330273	-0.2912518	-0.1934005	-0.1992701	1.7813010	-0.0199040	-0.1397486	-0.0357113
4.1722524	0.3528606	0.1350224	-0.2887849	-0.1930276	-0.2057720	1.7755676	-0.0142904	-0.1347748	-0.0426758
4.2722478	0.3667041	0.1372808	-0.2911684	-0.1932121	-0.2030120	1.7718369	-0.0059109	-0.1273266	-0.0510392
4.3722796	0.3787498	0.1408117	-0.2907071	-0.1938576	-0.1915002	1.7687816	0.0022158	-0.1246950	-0.0499268
4.4722532	0.3920431	0.1437730	-0.2951543	-0.1949540	-0.1781567	1.7653862	0.0036171	-0.1274026	-0.0429460
4.5722227	0.4056509	0.1465618	-0.2950797	-0.1958721	-0.1682758	1.7607845	-0.0030410	-0.1362829	-0.0302679
4.6722560	0.4194521	0.1484088	-0.2948334	-0.1965363	-0.1650224	1.7559708	-0.0119855	-0.1476424	-0.0194758
4.7722931	0.4351079	0.1489529	-0.2920664	-0.1968748	-0.1690641	1.7517799	-0.0195906	-0.1563944	-0.0100501
4.8722207	0.4512689	0.1493658	-0.2906865	-0.1968849	-0.1761908	1.7482313	-0.0257240	-0.1604462	-0.0087787
4.9724616	0.4670318	0.1498549	-0.2925691	-0.1967584	-0.1816830	1.7443967	-0.0273945	-0.1618747	-0.0164346
5.0722957	0.4837731	0.1495750	-0.2895282	-0.1965585	-0.1841324	1.7396538	-0.0266490	-0.1631303	-0.0236150
5.1724475	0.5010193	0.1497733	-0.2930872	-0.1962898	-0.1850664	1.7341131	-0.0267677	-0.1644135	-0.0339381
5.2724147	0.5182368	0.1498421	-0.2903012	-0.1961405	-0.1860977	1.7284788	-0.0295825	-0.1663790	-0.0379403
5.3723996	0.5362352	0.1494845	-0.2868678	-0.1958498	-0.1872250	1.7228046	-0.0369015	-0.1698521	-0.0421574
5.4722788	0.5535235	0.1483492	-0.2903262	-0.1956654	-0.1887093	1.7186981	-0.0458951	-0.1765408	-0.0474954
5.5722289	0.5725129	0.1468810	-0.2888028	-0.1952661	-0.1874056	1.7146633	-0.0480880	-0.1839844	-0.0473278
5.6723282	0.5922414	0.1454706	-0.2889094	-0.1952100	-0.1832782	1.7110966	-0.0420223	-0.1886106	-0.0450112
5.7722363	0.6109766	0.1447918	-0.2902406	-0.1944901	-0.1780919	1.7085306	-0.0306152	-0.1843067	-0.0459442
5.8722465	0.6299382	0.1445478	-0.2888272	-0.1932416	-0.1723882	1.7068123	-0.0220289	-0.1746707	-0.0528093
5.9722522	0.6479747	0.1451500	-0.2919698	-0.1911194	-0.1706661	1.7046744	-0.0243099	-0.1698498	-0.0662933
6.0722043	0.6658931	0.1445579	-0.2940712	-0.1886990	-0.1731528	1.7013825	-0.0357329	-0.1719994	-0.0733699
6.1722678	0.6849669	0.1427872	-0.2962522	-0.1871636	-0.1812401	1.6966363	-0.0484226	-0.1818711	-0.0698761
6.2722271	0.7036320	0.1402345	-0.2960601	-0.1878146	-0.1921193	1.6919504	-0.0542766	-0.1957774	-0.0592099
6.3722458	0.7250100	0.1379553	-0.2975230	-0.1908686	-0.2007258	1.6881947	-0.0510879	-0.2090333	-0.0444876
6.4722371	0.7458614	0.1368363	-0.2940044	-0.1950856	-0.2016266	1.6855266	-0.0423936	-0.2128455	-0.0285451
6.5722409	0.7677480	0.1348736	-0.2939113	-0.1986488	-0.1916339	1.6834104	-0.0343204	-0.2074509	-0.0208739
6.6722760	0.7875220	0.1344886	-0.2885283	-0.2001626	-0.1757373	1.6816176	-0.0293050	-0.1950861	-0.0220939
6.7724444	0.8075032	0.1334932	-0.2868347	-0.1996862	-0.1624758	1.6806372	-0.0294545	-0.1841522	-0.0368306
6.8724529	0.8277758	0.1312913	-0.2850483	-0.1982511	-0.1598085	1.6807115	-0.0338383	-0.1831277	-0.0546447
6.9724201	0.8478252	0.1271809	-0.2827978	-0.1967275	-0.1660216	1.6814128	-0.0388060	-0.1896834	-0.0672666
7.0722363	0.8692285	0.1242557	-0.2839999	-0.1955658	-0.1795963	1.6810237	-0.0490886	-0.2012990	-0.0722650
7.1722504	0.8915887	0.1208385	-0.2842975	-0.1942817	-0.1968791	1.6783852	-0.0616644	-0.2141873	-0.0714425
7.2722813	0.9141952	0.1176710	-0.2883552	-0.1922949	-0.2133346	1.6738476	-0.0683974	-0.2244872	-0.0755737
7.3722232	0.9365917	0.1169453	-0.2875204	-0.1893821	-0.2251013	1.6691426	-0.0673947	-0.2300636	-0.0757127
7.4722732	0.9616343	0.1130232	-0.2926871	-0.1866850	-0.2288159	1.6661542	-0.0650836	-0.2289690	-0.0763907
7.5722358	0.9853895	0.1109306	-0.2956443	-0.1862861	-0.2223173	1.6651724	-0.0641515	-0.2268087	-0.0672294
7.6723133	1.0063293	0.1107509	-0.2947518	-0.1891184	-0.2083628	1.6654501	-0.0668301	-0.2225904	-0.0525121
7.7722348	1.0289561	0.1075318	-0.2942213	-0.1940895	-0.1910725	1.6657338	-0.0718712	-0.2179605	-0.0413977
7.8722493	1.0519638	0.1025369	-0.2902468	-0.1986970	-0.1756323	1.6652695	-0.0726508	-0.2144593	-0.0372117
7.9722240	1.0762111	0.0959172	-0.2868678	-0.2012554	-0.1663427	1.6644331	-0.0658915	-0.2130026	-0.0413815
8.0722386	1.0971875	0.0925394	-0.2881675	-0.2000987	-0.1644241	1.6644416	-0.0526421	-0.2154745	-0.0506941
8.1722501	1.1223706	0.0850635	-0.2833589	-0.1979360	-0.1678092	1.6650339	-0.0409554	-0.2200972	-0.0504263
8.2722747	1.1433662	0.0916106	-0.2960514	-0.1957341	-0.1761391	1.6660486	-0.0369086	-0.2248305	-0.0582077
8.3722207	1.1666425	0.0863646	-0.2880448	-0.1957590	-0.1882916	1.6670134	-0.0414530	-0.2322338	-0.0454297
8.4722619	1.1913205	0.0842980	-0.2904214	-0.1958139	-0.2008760	1.6678254	-0.0510785	-0.2341636	-0.0476478
8.5722414	1.2148644	0.0821796	-0.2889094	-0.1948992	-0.2094299	1.6680396	-0.0598237	-0.2332374	-0.0554798
8.6722404	1.2386423	0.0794661	-0.2908222	-0.1928577	-0.2127073	1.6673465	-0.0662414	-0.2282409	-0.0700889
8.7722296	1.2622684	0.0776367	-0.2922631	-0.1899888	-0.2145404	1.6662319	-0.0696152	-0.2269669	-0.0775666
8.8722993	1.2834325	0.0805193	-0.2870512	-0.1881996	-0.2144142	1.6655075	-0.0670695	-0.2298016	-0.0727466
8.9722481	1.3066620	0.0777691	-0.2899259	-0.1880235	-0.2136644	1.6657841	-0.0625689	-0.2337557	-0.0689146
9.0722314	1.3295891	0.0780092	-0.2873681	-0.1890267	-0.2127110	1.6673356	-0.0562063	-0.2396065	-0.0604380
9.1723948	1.3571413	0.0725886	-0.2952015	-0.1907160	-0.2112602	1.6698850	-0.0529593	-0.2441944	-0.0606784
9.2722609	1.3805564	0.0723578	-0.2925396	-0.1926893	-0.2086278	1.6728586	-0.0525441	-0.2457711	-0.0563868
9.3722583	1.4055431	0.0714896	-0.2899142	-0.1943607	-0.2024491	1.6749670	-0.0545301	-0.2429800	-0.0552037
9.4722481	1.4310528	0.0685808	-0.2921760	-0.1951682	-0.1940145	1.6754383	-0.0597734	-0.2373285	-0.0572067
9.5724147	1.4550131	0.0649818	-0.2916014	-0.1952855	-0.1870455	1.6749721	-0.0607698	-0.2334149	-0.0556770
9.6724017	1.4806257	0.0597591	-0.2876569	-0.1953824	-0.1843601	1.6749735	-0.0551547	-0.2319490	-0.0476089
9.7722230	1.5048177	0.0583624	-0.2910341	-0.1958231	-0.1874185	1.6763520	-0.0498191	-0.2336117	-0.0436831
9.8722260	1.5295029	0.0555598	-0.2910857	-0.1962091	-0.1955827	1.6783384	-0.0521336	-0.2362068	-0.0397406
9.9722970	1.5530558	0.0514941	-0.2880785	-0.1960208	-0.2056368	1.6798567	-0.0620659	-0.2371169	-0.0388362
10.0722301	1.5784233	0.0467349	-0.2943049	-0.1952255	-0.2120462	1.6800508	-0.0747411	-0.2345669	-0.0510173
10.1722263	1.6018654	0.0462454	-0.2877292	-0.1942519	-0.2126559	1.6791536	-0.0772395	-0.2348689	-0.0512002
10.2723983	1.6270075	0.0377577	-0.2976509	-0.1937654	-0.2084216	1.6777651	-0.0752497	-0.2331746	-0.0542678
10.3722670	1.6506337	0.0367311	-0.2910950	-0.1938522	-0.2033974	1.6771442	-0.0649711	-0.2327235	-0.0394302
10.4722621	1.6750323	0.0331830	-0.2898919	-0.1942439	-0.1998802	1.6778673	-0.0580758	-0.2335609	-0.0315292
10.5722570	1.7001240	0.0295222	-0.2868678	-0.1946922	-0.1989704	1.6798439	-0.0577670	-0.2364606	-0.0293363
10.6722755	1.7231396	0.0258449	-0.2827398	-0.1954345	-0.1994129	1.6819269	-0.0597828	-0.2420970	-0.0342248
10.7722778	1.7488367	0.0229559	-0.2882485	-0.1968440	-0.1987027	1.6839178	-0.0624969	-0.2461210	-0.0449122
10.8722332	1.7749661	0.0187249	-0.2848270	-0.1986757	-0.1965229	1.6841365	-0.0690645	-0.2499487	-0.0418853
10.9722575	1.8001921	0.0142025	-0.2860330	-0.1997915	-0.1959218	1.6823209	-0.0840438	-0.2503176	-0.0427786
11.0723681	1.8262202	0.0081363	-0.2896067	-0.2002924	-0.1985541	1.6792732	-0.1018817	-0.2467076	-0.0447380
11.1722089	1.8518710	0.0002404	-0.2899290	-0.2007559	-0.2001791	1.6756987	-0.1136453	-0.2428167	-0.0411774
11.2722481	1.8776196	-0.0085951	-0.2881691	-0.2015810	-0.1979671	1.6721886	-0.1169841	-0.2370771	-0.0351429
11.3723123	1.9023468	-0.0177595	-0.2903866	-0.2026518	-0.1922846	1.6685294	-0.1125470	-0.2294051	-0.0327481
11.4723886	1.9268550	-0.0273390	-0.2858494	-0.2033287	-0.1848256	1.6650607	-0.1035788	-0.2230934	-0.0308863
11.5722248	1.9493949	-0.0335609	-0.2891625	-0.2032075	-0.1786587	1.6624757	-0.0979519	-0.2192019	-0.0366611
11.6722196	1.9722093	-0.0402766	-0.2917362	-0.2022397	-0.1770646	1.6606952	-0.0979769	-0.2186622	-0.0435865
11.7722906	1.9957213	-0.0476573	-0.2942104	-0.2006325	-0.1836408	1.6590945	-0.1017510	-0.2224212	-0.0507611
11.8724224	2.0201784	-0.0618877	-0.2874603	-0.1985664	-0.1995763	1.6565528	-0.1121947	-0.2295047	-0.0438848
11.9723011	2.0440785	-0.0729119	-0.2836812	-0.1966827	-0.2219343	1.6525168	-0.1263911	-0.2351064	-0.0355377
12.0722401	2.0673565	-0.0805607	-0.2809009	-0.1952774	-0.2446103	1.6470799	-0.1340735	-0.2380853	-0.0279232
12.1722836	2.0959815	-0.1056760	-0.2885730	-0.1941154	-0.2641473	1.6406919	-0.1387236	-0.2368771	-0.0319911
12.2722726	2.1180453	-0.1101537	-0.2882680	-0.1927781	-0.2777198	1.6340964	-0.1356311	-0.2326359	-0.0328347
12.3722478	2.1428359	-0.1230402	-0.2913516	-0.1916239	-0.2842989	1.6284211	-0.1309959	-0.2279115	-0.0370175
12.4722532	2.1591648	-0.1094322	-0.2877750	-0.1917218	-0.2831421	1.6240334	-0.1272858	-0.2289690	-0.0332578
12.5722621	2.1814621	-0.1140924	-0.2883902	-0.1930917	-0.2750777	1.6192923	-0.1326043	-0.2304762	-0.0320687
12.6722918	2.2031552	-0.1152923	-0.2872775	-0.1946652	-0.2618294	1.6121071	-0.1478386	-0.2334329	-0.0317531
12.7722299	2.2274153	-0.1279610	-0.2891635	-0.1955157	-0.2450966	1.6020496	-0.1699067	-0.2363200	-0.0360874
12.8722171	2.2520678	-0.1383423	-0.2868678	-0.1968553	-0.2263713	1.5892822	-0.1812711	-0.2309688	-0.0426446
12.9722409	2.2739589	-0.1554226	-0.2865601	-0.1939550	-0.2103825	1.5788918	-0.1807014	-0.2247475	-0.0476100
13.0722785	2.2972281	-0.1716771	-0.2919219	-0.1929462	-0.1984165	1.5692989	-0.1717162	-0.2243240	-0.0537028
13.1723085	2.3217204	-0.1965291	-0.2909494	-0.1933242	-0.1894602	1.5613788	-0.1575628	-0.2277520	-0.0487449
13.2723835	2.3446094	-0.2238410	-0.2883400	-0.1936816	-0.1847112	1.5555813	-0.1523495	-0.2333237	-0.0390716
13.3722621	2.3695797	-0.2508762	-0.2854388	-0.1945502	-0.1847979	1.5492433	-0.1579962	-0.2383126	-0.0286955
13.4722150	2.3917282	-0.2506449	-0.2940114	-0.1944179	-0.1875969	1.5415586	-0.1655303	-0.2406361	-0.0288677
13.5722176	2.4157941	-0.2822270	-0.2880195	-0.1938484	-0.1929194	1.5332313	-0.1814347	-0.2413609	-0.0171764
13.6722360	2.4392376	-0.3046003	-0.2871385	-0.1934619	-0.1991311	1.5248318	-0.1891547	-0.2394172	-0.0146730
13.7722396	2.4618082	-0.3222112	-0.2899290	-0.1941613	-0.2046975	1.5174051	-0.1893729	-0.2351225	-0.0184311
13.8722470	2.4836886	-0.3427804	-0.2902132	-0.1963762	-0.2077127	1.5118084	-0.1873805	-0.2302291	-0.0169250
13.9722542	2.5054023	-0.3647227	-0.2873298	-0.1995007	-0.2048919	1.5066090	-0.1844798	-0.2278912	-0.0161019
14.0722312	2.5273957	-0.3856012	-0.2869336	-0.2026418	-0.1965994	1.5006095	-0.1829092	-0.2257343	-0.0216773
14.1722214	2.5482196	-0.4057309	-0.2873400	-0.2044810	-0.1881816	1.4931982	-0.1826743	-0.2203005	-0.0278482
14.2722762	2.5686127	-0.4251088	-0.2903242	-0.2041560	-0.1845311	1.4850285	-0.1821214	-0.2169412	-0.0392637
14.3722350	2.5963914	-0.4593713	-0.2840729	-0.2022464	-0.1878021	1.4779264	-0.1846181	-0.2213124	-0.0452169
14.4723438	2.6180823	-0.4824444	-0.2850920	-0.1999519	-0.1941003	1.4726077	-0.1843065	-0.2284018	-0.0554920
14.5722747	2.6402210	-0.5019484	-0.2908837	-0.1977294	-0.2021040	1.4684105	-0.1840468	-0.2339024	-0.0648405
14.6722202	2.6625890	-0.5261356	-0.2884459	-0.1955778	-0.2070189	1.4641959	-0.1857943	-0.2397444	-0.0616283
14.7724595	2.6854458	-0.5465022	-0.2958417	-0.1936947	-0.2079507	1.4592658	-0.1951455	-0.2470838	-0.0625234
14.8724262	2.7049903	-0.5678545	-0.2905306	-0.1918883	-0.2074283	1.4528267	-0.2041638	-0.2515972	-0.0493016
14.9722194	2.7263602	-0.5909881	-0.2904089	-0.1900491	-0.2078096	1.4449474	-0.2094390	-0.2481732	-0.0381368
15.0722752	2.7486336	-0.6143435	-0.2951695	-0.1884286	-0.2088486	1.4360379	-0.2151881	-0.2463338	-0.0333599
15.1722432	2.7685149	-0.6388494	-0.2949204	-0.1875084	-0.2097522	1.4270914	-0.2147860	-0.2486606	-0.0330921
15.2724180	2.7873891	-0.6627291	-0.2934651	-0.1877322	-0.2085943	1.4191939	-0.2058948	-0.2484642	-0.0332408
15.3722363	2.8040947	-0.6847944	-0.2897774	-0.1887766	-0.2054334	1.4125282	-0.1954870	-0.2462417	-0.0285548
15.4722068	2.8250582	-0.7105482	-0.2868678	-0.1905458	-0.2019724	1.4056418	-0.1908712	-0.2478940	-0.0309277
15.5722624	2.8465201	-0.7304879	-0.2934705	-0.1922969	-0.1991753	1.3995465	-0.1981602	-0.2515676	-0.0345469
15.6722450	2.8671306	-0.7598748	-0.2865794	-0.1945896	-0.1987588	1.3921189	-0.2110648	-0.2551735	-0.0224473
15.7722483	2.8885620	-0.7870613	-0.2868678	-0.1956444	-0.2028292	1.3836791	-0.2261046	-0.2553015	-0.0166254
15.8722883	2.9081628	-0.8139942	-0.2861065	-0.1963580	-0.2072375	1.3758209	-0.2369085	-0.2496211	-0.0115815
15.9722836	2.9275540	-0.8436169	-0.2919434	-0.1962772	-0.2093104	1.3673346	-0.2489343	-0.2408004	-0.0168772
16.0722409	2.9459961	-0.8726968	-0.2909494	-0.1952377	-0.2126311	1.3581987	-0.2667893	-0.2389054	-0.0209090
16.1722365	2.9631796	-0.8997928	-0.2866918	-0.1940414	-0.2167693	1.3491512	-0.2864147	-0.2472916	-0.0213166
16.2722153	2.9806581	-0.9323526	-0.2874778	-0.1932702	-0.2185417	1.3395970	-0.2968767	-0.2529341	-0.0145397
16.3722309	2.9976547	-0.9660083	-0.2899290	-0.1930046	-0.2175827	1.3297917	-0.2959861	-0.2527275	-0.0038301
16.4722650	3.0144434	-1.0002749	-0.2913355	-0.1925448	-0.2154622	1.3201363	-0.2835632	-0.2465002	0.0009529
16.5722785	3.0310027	-1.0339088	-0.2925525	-0.1923506	-0.2074489	1.3106359	-0.2686213	-0.2441104	0.0007821
16.6722524	3.0464954	-1.0659296	-0.2868603	-0.1929779	-0.1936611	1.3009980	-0.2551933	-0.2448565	0.0046082
16.7724216	3.0619985	-1.0923923	-0.2898937	-0.1943928	-0.1793589	1.2910493	-0.2557688	-0.2438669	0.0014846
16.8724913	3.0788297	-1.1314052	-0.2866353	-0.1962431	-0.1687016	1.2809416	-0.2701021	-0.2444408	0.0034759
16.9722458	3.0953970	-1.1792683	-0.2817110	-0.1980164	-0.1638237	1.2713717	-0.2919666	-0.2439370	0.0062792
17.0722330	3.1068719	-1.2024103	-0.2847943	-0.1992692	-0.1663181	1.2629785	-0.3088362	-0.2414797	0.0046715
17.1722778	3.1178441	-1.2274594	-0.2890438	-0.2003090	-0.1729172	1.2550636	-0.3186851	-0.2386615	0.0053239
17.2722570	3.1318043	-1.2792998	-0.2837983	-0.2016597	-0.1796948	1.2462624	-0.3271381	-0.2370515	0.0126268
17.3722757	3.1404277	-1.3111000	-0.2880700	-0.2033458	-0.1850303	1.2358621	-0.3346208	-0.2315165	0.0097830
17.4722726	3.1508650	-1.3528683	-0.2874348	-0.2047869	-0.1893509	1.2246067	-0.3415203	-0.2256261	0.0078847
17.5722772	3.1632874	-1.3965075	-0.2830771	-0.2046215	-0.1949106	1.2138759	-0.3464671	-0.2214196	0.0020865
17.6722255	3.1708741	-1.4356849	-0.2861033	-0.2020383	-0.2000249	1.2043586	-0.3543548	-0.2203494	-0.0116250
17.7722788	3.1779636	-1.4785760	-0.2930483	-0.1977091	-0.2034337	1.1957125	-0.3638681	-0.2230785	-0.0234230
17.8722570	3.1858350	-1.5138704	-0.2876841	-0.1931109	-0.2042516	1.1876656	-0.3683579	-0.2317533	-0.0156232
17.9721933	3.1918660	-1.5526024	-0.2881470	-0.1902546	-0.2004294	1.1800441	-0.3664810	-0.2439206	-0.0015700
18.0722184	3.2037804	-1.6013008	-0.2940114	-0.1909342	-0.1904035	1.1721234	-0.3604318	-0.2559056	0.0117784
18.1722616	3.2058198	-1.6477274	-0.2845069	-0.1918505	-0.1778499	1.1646535	-0.3630962	-0.2619941	0.0349889
18.2722304	3.2172411	-1.6768985	-0.2929580	-0.1942680	-0.1665999	1.1555193	-0.3727683	-0.2606929	0.0407612
18.3722414	3.2233137	-1.7326596	-0.2858474	-0.1966547	-0.1569566	1.1446021	-0.3864805	-0.2543659	0.0521567
18.4724675	3.2285193	-1.7424045	-0.2922778	-0.1980099	-0.1504019	1.1344521	-0.3872795	-0.2430631	0.0442571
18.5722619	3.2325970	-1.7911414	-0.2885888	-0.2000088	-0.1484325	1.1253948	-0.3766147	-0.2329581	0.0359192
18.6722493	3.2371424	-1.8495062	-0.2827853	-0.2021789	-0.1538325	1.1193530	-0.3632625	-0.2265043	0.0225656
18.7722542	3.2396027	-1.8853038	-0.2852093	-0.2037975	-0.1648820	1.1161046	-0.3629640	-0.2180935	-0.0045984
18.8722819	3.2436183	-1.9339092	-0.2859728	-0.2030109	-0.1801819	1.1131929	-0.3779453	-0.2137853	-0.0267082
18.9722383	3.2475516	-1.9788808	-0.2859041	-0.1991600	-0.1960480	1.1087367	-0.3989782	-0.2143576	-0.0369102
19.0722376	3.2489543	-2.0281479	-0.2950611	-0.1931384	-0.2103418	1.1021410	-0.4179810	-0.2176324	-0.0329352
19.1722619	3.2418185	-2.0484306	-0.2910610	-0.1869490	-0.2206331	1.0936334	-0.4211854	-0.2271540	-0.0037442
19.2721861	3.2441605	-2.1015024	-0.2962344	-0.1833316	-0.2242945	1.0843889	-0.4197740	-0.2453916	0.0254444
19.3722606	3.2406288	-2.1344592	-0.2940271	-0.1841244	-0.2161656	1.0750120	-0.4027831	-0.2475595	0.0484881
19.4722732	3.2371006	-2.1699598	-0.2885673	-0.1891256	-0.1979112	1.0665128	-0.3889992	-0.2471586	0.0671600
19.5724301	3.2419327	-2.2276274	-0.2925601	-0.1964820	-0.1736331	1.0599302	-0.3839604	-0.2399087	0.0677844
19.6722578	3.2421556	-2.2764281	-0.2854469	-0.2032293	-0.1492478	1.0555863	-0.3856309	-0.2279349	0.0592702
19.7722450	3.2369067	-2.3108285	-0.2852179	-0.2066284	-0.1327262	1.0529616	-0.3931600	-0.2156309	0.0333471
19.8722557	3.2317330	-2.3416114	-0.2868650	-0.2059013	-0.1282653	1.0510352	-0.4014530	-0.2113833	0.0076837
19.9722460	3.2291549	-2.3814975	-0.2884174	-0.2024842	-0.1350635	1.0482816	-0.4083439	-0.2152697	-0.0074085
20.0723776	3.2273998	-2.4297222	-0.2904320	-0.1990818	-0.1507292	1.0442190	-0.4096910	-0.2222937	-0.0122980
20.1722509	3.2253977	-2.4864726	-0.2903358	-0.1975645	-0.1680530	1.0404924	-0.4055863	-0.2297308	-0.0043492
20.2722324	3.2224610	-2.5369626	-0.2887238	-0.1981341	-0.1779311	1.0378576	-0.3996365	-0.2324966	0.0066598
20.3722465	3.2187442	-2.5807855	-0.2858233	-0.1988618	-0.1783178	1.0355663	-0.4009184	-0.2308621	0.0117430
20.4724109	3.2167679	-2.6315267	-0.2933749	-0.1982843	-0.1744664	1.0322167	-0.4147216	-0.2271527	0.0052999
20.5722555	3.2142844	-2.6795540	-0.2897996	-0.1969084	-0.1740940	1.0272091	-0.4340672	-0.2274746	0.0113222
20.6722186	3.2096931	-2.7310530	-0.2878874	-0.1960073	-0.1798301	1.0205620	-0.4522802	-0.2308684	0.0214433
20.7722235	3.2048334	-2.7780663	-0.2880760	-0.1980065	-0.1863252	1.0151842	-0.4523342	-0.2341923	0.0302109
20.8722583	3.1995014	-2.8254717	-0.2860647	-0.2007937	-0.1891944	1.0104272	-0.4376277	-0.2325129	0.0338327
20.9722849	3.1952847	-2.8717913	-0.2848270	-0.2032190	-0.1853681	1.0058480	-0.4235235	-0.2266013	0.0283786
21.0722235	3.1948657	-2.9118024	-0.2799102	-0.2030821	-0.1799035	1.0012823	-0.4157361	-0.2222370	0.0226766
21.1724081	3.1859306	-2.9616771	-0.2866647	-0.2013180	-0.1797835	0.9964894	-0.4133698	-0.2201214	0.0135016
21.2722350	3.1814218	-3.0079030	-0.2878874	-0.1988837	-0.1854286	0.9926674	-0.4136481	-0.2207746	0.0131404
21.3723013	3.1766824	-3.0507484	-0.2863527	-0.1973139	-0.1939516	0.9903116	-0.4182404	-0.2242027	0.0167556
21.4722670	3.1719320	-3.1014726	-0.2901873	-0.1959509	-0.2012810	0.9883400	-0.4243175	-0.2279541	0.0153333
21.5723195	3.1666879	-3.1506758	-0.2931272	-0.1944495	-0.2039772	0.9856607	-0.4304763	-0.2300325	0.0137206
21.6724303	3.1619065	-3.2059733	-0.2990139	-0.1922840	-0.2041051	0.9814672	-0.4427163	-0.2315318	0.0127871
21.7724291	3.1525156	-3.2391375	-0.2954418	-0.1899147	-0.2044598	0.9759947	-0.4542826	-0.2337968	0.0245057
21.8722616	3.1447343	-3.2899218	-0.2972079	-0.1886167	-0.2050809	0.9699514	-0.4640223	-0.2354325	0.0346907
21.9722296	3.1289196	-3.3166723	-0.2889659	-0.1895369	-0.2026540	0.9640174	-0.4635579	-0.2362083	0.0517266
22.0722450	3.1214963	-3.3731765	-0.2907681	-0.1920958	-0.1966591	0.9579953	-0.4620000	-0.2364046	0.0542327
22.1722519	3.1138448	-3.4301210	-0.2939656	-0.1951087	-0.1886632	0.9519652	-0.4613425	-0.2352730	0.0484598
22.2723502	3.1034826	-3.4817359	-0.2814393	-0.1974346	-0.1815246	0.9461840	-0.4578977	-0.2316094	0.0472946
22.3723185	3.0932993	-3.5269294	-0.2862328	-0.1984437	-0.1762239	0.9414620	-0.4495172	-0.2267649	0.0255938
22.4722570	3.0844791	-3.5794937	-0.2861319	-0.1984346	-0.1741939	0.9385116	-0.4408819	-0.2250208	0.0096251
22.5722278	3.0759533	-3.6339722	-0.2859184	-0.1981478	-0.1751344	0.9372980	-0.4349112	-0.2239472	0.0029264
22.6722463	3.0680439	-3.6821285	-0.2877005	-0.1979352	-0.1797693	0.9371795	-0.4320070	-0.2241386	0.0021964
22.7722184	3.0600125	-3.7301095	-0.2914431	-0.1976283	-0.1857248	0.9368462	-0.4311728	-0.2244400	0.0041583
22.8723738	3.0515985	-3.7790851	-0.2910860	-0.1968901	-0.1891223	0.9351504	-0.4351288	-0.2267236	0.0111692
22.9722097	3.0422667	-3.8280869	-0.2878874	-0.1952570	-0.1920437	0.9317177	-0.4416334	-0.2283603	0.0227790
23.0723927	3.0347044	-3.8792656	-0.2963636	-0.1944990	-0.1960103	0.9288633	-0.4436822	-0.2284820	0.0267479
23.1722273	3.0238976	-3.9209186	-0.2913259	-0.1939959	-0.1990317	0.9265901	-0.4400617	-0.2297000	0.0370714
23.2722222	3.0140859	-3.9700062	-0.2909494	-0.1943368	-0.1989939	0.9254292	-0.4374286	-0.2326377	0.0406592
23.3722181	3.0052714	-4.0096636	-0.2868567	-0.1945756	-0.1960784	0.9246866	-0.4405637	-0.2366808	0.0429910