# Time	Input
-4.6997207	0.0000000
-4.5996398	0.0000000
-4.4996349	0.0000000
-4.3997325	0.0000000
-4.2995039	0.0000000
-4.1997169	0.0000000
-4.0996421	0.0000000
-3.9998134	0.0000000
-3.8995177	0.0000000
-3.7996956	0.0000000
-3.6997007	0.0000000
-3.5995891	0.0000000
-3.4996918	0.0000000
-3.3997148	0.0000000
-3.2997025	0.0000000
-3.1997097	0.0000000
-3.0996864	0.0000000
-2.9998029	0.0000000
-2.8991972	0.0000000
-2.7997327	0.0000000
-2.6996969	0.0000000
-2.5996948	0.0000000
-2.4997327	0.0000000
-2.3996864	0.0000000
-2.2997197	0.0000000
-2.1996703	0.0000000
-2.0996797	0.0000000
-1.9996572	0.0000000
-1.8994545	0.0000000
-1.7995988	0.0000000
-1.6996690	0.0000000
-1.5996718	0.0000000
-1.4996577	0.0000000
-1.3996367	0.0000000
-1.2994852	0.0000000
-1.1994888	0.0000000
-1.0996178	0.0000000
-0.9995919	0.0000000
-0.8995105	0.0000000
-0.7996365	0.0000000
-0.6996646	0.0000000
-0.5994442	0.0000000
-0.4996659	0.0000000
-0.3997059	0.0000000
-0.2994120	0.0000000
-0.1996393	0.0000000
-0.0996946	0.0000000
0.0003697	-5.1535606
0.1004772	-5.2908711
0.2003817	-5.3333988
0.3004014	-5.2012005
0.4002985	-4.7744141
0.5003185	-4.4051538
0.6004654	-4.0998621
0.7004733	-4.2575259
0.8004006	-4.5417862
0.9003220	-4.6922007
1.0003425	-4.6633058
1.1005704	-4.4074793
1.2003062	-3.9243305
1.3002755	-3.4374814
1.4003062	-3.0323837
1.5003023	-2.6549606
1.6004303	-2.5056243
1.7003131	-2.5705538
1.8003581	-2.8995011
1.9003830	-3.2960649
2.0002488	-3.5432687
2.1004772	-3.7320714
2.2003474	-3.9073360
2.3003384	-3.5577354
2.4003633	-3.3807218
2.5003026	-3.2564647
2.6002670	-3.6128170
2.7002332	-4.1065774
2.8003151	-4.5002494
2.9003717	-5.0304627
3.0002419	-5.5357656
3.1002179	-5.5210314
3.2003400	-4.9547954
3.3003187	-4.2729969
3.4002964	-3.5827918
3.5002324	-3.1682119
3.6002209	-3.1958332
3.7003218	-3.5962653
3.8002900	-4.2223635
3.9003256	-4.7138906
4.0004541	-5.0680556
4.1002944	-5.3477464
4.2003238	-5.2251458
4.3002276	-5.0297194
4.4002900	-4.6257863
4.5003110	-3.8514421
4.6002650	-3.1888585
4.7002122	-2.8001039
4.8003709	-2.5149274
4.9003190	-2.8341444
5.0002286	-3.1925726
5.1003589	-3.3344758
5.2003052	-3.6593676
5.3003080	-3.9502215
5.4003174	-4.3478022
5.5002196	-4.9367256
5.6002900	-4.9466724
5.7002563	-4.5028901
5.8003064	-3.5599961
5.9002947	-2.6030934
6.0002555	-1.9080398
6.1003553	-1.6210800
6.2002647	-1.4399728
6.3002673	-1.1758374
6.4003569	-0.9229459
6.5003290	-0.6977742
6.6004608	-0.4606777
6.7003116	-0.1489411
6.8003679	0.2496681
6.9002962	0.6811019
7.0002854	1.0938572
7.1002924	1.7584803
7.2003077	2.6490231
7.3002271	3.9791572
7.4002319	5.4527726
7.5002806	5.9238143
7.6003144	5.6825609
7.7003121	4.1419086
7.8003308	2.4683633
7.9002519	1.4420476
8.0003128	1.2818556
8.1005929	2.1945217
8.2002639	3.3154731
8.3002819	4.5296102
8.4003860	5.4103112
8.5003059	5.6366291
8.6003384	5.6072803
8.7002176	5.0222125
8.8002527	4.9675698
8.9005437	4.6674728
9.0003213	4.3466101
9.1003241	4.5818524
9.2002340	5.0242243
9.3003379	5.3963299
9.4002806	5.2963719
9.5001999	5.0552764
9.6002926	4.3060822
9.7003215	3.3468988
9.8003192	3.2475307
9.9002404	3.1610315
10.0002703	3.1747639
10.1006505	3.8765814
10.2003384	4.7722392
10.3002844	5.8274398
10.4002844	6.8133392
10.5002010	7.5787525
10.6002724	7.7683764
10.7003356	6.9528470
10.8003512	6.1070390
10.9003069	5.2716398
11.0003474	4.3078470
11.1009516	4.3522363
11.2003735	4.8122745
11.3003740	5.8227000
11.4003031	7.0027246
11.5007204	7.7736897
11.6003553	7.8431292
11.7002903	7.8743267
11.8002926	7.8412995
11.9003896	8.1593256
12.0003172	8.4101906
12.1003315	8.5552320
12.2002555	8.1973381
12.3003884	7.5202775
12.4003105	7.2369385
12.5002596	6.8766046
12.6003210	6.9678311
12.7003628	7.4634395
12.8003126	8.3682184
12.9002417	9.0428076
13.0003528	9.4045763
13.1003282	9.6293163
13.2002156	9.4567661
13.3003218	9.5968733
13.4002752	9.7629480
13.5003822	10.3564653
13.6003241	10.8245535
13.7004239	11.0464334
13.8004879	11.2019844
13.9004303	10.8920536
14.0002614	10.1730738
14.1005688	9.4062243
14.2004163	9.0330820
14.3002954	9.1258965
14.4004762	9.2584496
14.5003333	9.6541424
14.6004109	10.0161963
14.7004280	10.2398262
14.8003415	10.5558729
14.9002726	10.7534294
15.0003584	11.2804222
15.1003067	11.8959932
15.2003180	12.0751677
15.3002606	11.9131470
15.4002470	11.5706520
15.5002826	10.9861841
15.6003917	10.8199100
15.7003057	10.5350266
15.8003174	10.3717871
15.9003779	10.5293074
16.0003981	10.8160200
16.1005033	11.3208075
16.2003510	11.7930079
16.3003653	12.3939877
16.4004242	12.6405945
16.5003876	12.5374660
16.6003057	12.3113718
16.7004201	11.5559139
16.8003540	11.1839619
16.9003162	10.9111586
17.0002985	11.1461926
17.1003692	11.6843357
17.2003310	12.3648376
17.3002857	13.1519709
17.4003195	13.2398911
17.5002982	13.3306170
17.6002040	13.0719376
17.7005343	12.6970282
17.8003438	12.5902290
17.9003036	12.8178854
18.0003308	12.6135578
18.1002834	12.6241159
18.2002890	12.3975964
18.3003218	12.3952999
18.4005916	12.6215086
18.5003592	12.9105062
18.6003405	13.0467443
18.7003064	12.8900776
18.8002842	12.7824869
18.9003610	12.4001045
19.0002629	12.2510948
19.1004052	12.4460697
19.2002842	12.6904507
19.3002596	13.2140198
19.4002614	13.2556019
19.5003540	13.3171196
19.6002916	13.5563078
19.7003996	13.9893703
19.8003052	14.3645411
19.9003581	14.5644798
19.9339945	0.0000000
