# Time	Input
-4.6998044	0.0000000
-4.5997524	0.0000000
-4.4997686	0.0000000
-4.3996664	0.0000000
-4.2995277	0.0000000
-4.1998295	0.0000000
-4.0996959	0.0000000
-3.9998715	0.0000000
-3.8995932	0.0000000
-3.7997435	0.0000000
-3.6997317	0.0000000
-3.5998390	0.0000000
-3.4997514	0.0000000
-3.3997420	0.0000000
-3.2998180	0.0000000
-3.1997862	0.0000000
-3.0998356	0.0000000
-2.9999055	0.0000000
-2.8992878	0.0000000
-2.7997110	0.0000000
-2.6996559	0.0000000
-2.5997222	0.0000000
-2.4997814	0.0000000
-2.3996803	0.0000000
-2.2996710	0.0000000
-2.1997499	0.0000000
-2.0997356	0.0000000
-1.9997409	0.0000000
-1.8994624	0.0000000
-1.7997524	0.0000000
-1.6997458	0.0000000
-1.5997092	0.0000000
-1.4999130	0.0000000
-1.3997640	0.0000000
-1.2995763	0.0000000
-1.1996621	0.0000000
-1.0996759	0.0000000
-0.9997688	0.0000000
-0.8997028	0.0000000
-0.7997225	0.0000000
-0.6997911	0.0000000
-0.5996698	0.0000000
-0.4998899	0.0000000
-0.3998423	0.0000000
-0.2994296	0.0000000
-0.1997896	0.0000000
-0.0997722	0.0000000
0.0003761	-5.1535606
0.1003023	-5.2908711
0.2003476	-5.3333988
0.3002271	-5.2012005
0.4001452	-4.7744141
0.5002516	-4.4051538
0.6003261	-4.0998621
0.7002491	-4.2575259
0.8003604	-4.5417862
0.9002990	-4.6922007
1.0002053	-4.6633058
1.1004429	-4.4074793
1.2001702	-3.9243305
1.3001682	-3.4374814
1.4001644	-3.0323837
1.5002757	-2.6549606
1.6001818	-2.5056243
1.7001216	-2.5705538
1.8002406	-2.8995011
1.9003069	-3.2960649
2.0001836	-3.5432687
2.1004716	-3.7320714
2.2001633	-3.9073360
2.3002194	-3.5577354
2.4002619	-3.3807218
2.5003092	-3.2564647
2.6002143	-3.6128170
2.7002120	-4.1065774
2.8002842	-4.5002494
2.9005181	-5.0304627
3.0002701	-5.5357656
3.1003348	-5.5210314
3.2002478	-4.9547954
3.3001738	-4.2729969
3.4001733	-3.5827918
3.5001851	-3.1682119
3.6002396	-3.1958332
3.7003331	-3.5962653
3.8001874	-4.2223635
3.9002056	-4.7138906
4.0003709	-5.0680556
4.1002493	-5.3477464
4.2002015	-5.2251458
4.3001505	-5.0297194
4.4001423	-4.6257863
4.5003807	-3.8514421
4.6002304	-3.1888585
4.7001065	-2.8001039
4.8003366	-2.5149274
4.9001992	-2.8341444
5.0001155	-3.1925726
5.1001572	-3.3344758
5.2002276	-3.6593676
5.3002591	-3.9502215
5.4001298	-4.3478022
5.5002253	-4.9367256
5.6001797	-4.9466724
5.7001528	-4.5028901
5.8002473	-3.5599961
5.9001736	-2.6030934
6.0001567	-1.9080398
6.1003110	-1.6210800
6.2002598	-1.4399728
6.3002435	-1.1758374
6.4002063	-0.9229459
6.5002363	-0.6977742
6.6005053	-0.4606777
6.7003177	-0.1489411
6.8001531	0.2496681
6.9002816	0.6811019
7.0000730	1.0938572
7.1002842	1.7584803
7.2002870	2.6490231
7.3001249	3.9791572
7.4002250	5.4527726
7.5001411	5.9238143
7.6002867	5.6825609
7.7002278	4.1419086
7.8001646	2.4683633
7.9001964	1.4420476
8.0002583	1.2818556
8.1003471	2.1945217
8.2001894	3.3154731
8.3001815	4.5296102
8.4001518	5.4103112
8.5002350	5.6366291
8.6002916	5.6072803
8.7002867	5.0222125
8.8002721	4.9675698
8.9003236	4.6674728
9.0002335	4.3466101
9.1003628	4.5818524
9.2002601	5.0242243
9.3001879	5.3963299
9.4002138	5.2963719
9.5001196	5.0552764
9.6001352	4.3060822
9.7002913	3.3468988
9.8001841	3.2475307
9.9002468	3.1610315
10.0001695	3.1747639
10.1002419	3.8765814
10.2002836	4.7722392
10.3003090	5.8274398
10.4001682	6.8133392
10.5002540	7.5787525
10.6001892	7.7683764
10.7003896	6.9528470
10.8002248	6.1070390
10.9002788	5.2716398
11.0002030	4.3078470
11.1009613	4.3522363
11.2003423	4.8122745
11.3002122	5.8227000
11.4002486	7.0027246
11.5005568	7.7736897
11.6002486	7.8431292
11.7002363	7.8743267
11.8001677	7.8412995
11.9002885	8.1593256
12.0002276	8.4101906
12.1002355	8.5552320
12.2002143	8.1973381
12.3003837	7.5202775
12.4002793	7.2369385
12.5001492	6.8766046
12.6001884	6.9678311
12.7001211	7.4634395
12.8002911	8.3682184
12.9001882	9.0428076
13.0002714	9.4045763
13.1002890	9.6293163
13.2003566	9.4567661
13.3001994	9.5968733
13.4002719	9.7629480
13.5002557	10.3564653
13.6002639	10.8245535
13.7003369	11.0464334
13.8003238	11.2019844
13.9004196	10.8920536
14.0002350	10.1730738
14.1004244	9.4062243
14.2003443	9.0330820
14.3001411	9.1258965
14.4003466	9.2584496
14.5003072	9.6541424
14.6003180	10.0161963
14.7003830	10.2398262
14.8003502	10.5558729
14.9003031	10.7534294
15.0001853	11.2804222
15.1003651	11.8959932
15.2002616	12.0751677
15.3001257	11.9131470
15.4002199	11.5706520
15.5001006	10.9861841
15.6002880	10.8199100
15.7002030	10.5350266
15.8002117	10.3717871
15.9002724	10.5293074
16.0002486	10.8160200
16.1001011	11.3208075
16.2004001	11.7930079
16.3003351	12.3939877
16.4003850	12.6405945
16.5002127	12.5374660
16.6002470	12.3113718
16.7003256	11.5559139
16.8001569	11.1839619
16.9002068	10.9111586
17.0003046	11.1461926
17.1002396	11.6843357
17.2002388	12.3648376
17.3001390	13.1519709
17.4002002	13.2398911
17.5002089	13.3306170
17.6002985	13.0719376
17.7004244	12.6970282
17.8003095	12.5902290
17.9002066	12.8178854
18.0003773	12.6135578
18.1002867	12.6241159
18.2001313	12.3975964
18.3002317	12.3952999
18.4004733	12.6215086
18.5001684	12.9105062
18.6002179	13.0467443
18.7001705	12.8900776
18.8002772	12.7824869
18.9002081	12.4001045
19.0001807	12.2510948
19.1001997	12.4460697
19.2001541	12.6904507
19.3002122	13.2140198
19.4002281	13.2556019
19.5003105	13.3171196
19.6001262	13.5563078
19.7002737	13.9893703
19.8001434	14.3645411
19.9001272	14.5644798
19.9338755	0.0000000
