# Time	x	y	z	roll	pitch	yaw	vx	vy	vz	
-9.4243812	0.0000005	0.0000004	-0.0929903	-0.2098485	-0.1202936	-0.0185065	0.0001438	0.0001403	-0.0000237
-9.3242604	0.0001365	0.0000582	-0.0940055	-0.2097654	-0.1178231	-0.0183592	0.0035183	0.0010999	0.0003606
-9.2242998	0.0007879	-0.0000636	-0.0960382	-0.2108852	-0.1111357	-0.0174801	0.0091197	-0.0030584	-0.0020327
-9.1241513	0.0020537	-0.0012507	-0.0910398	-0.2129887	-0.0973579	-0.0164937	0.0118385	-0.0135387	-0.0140680
-9.0243622	0.0030250	-0.0032332	-0.0984532	-0.2125862	-0.0978958	-0.0157522	0.0102244	-0.0253475	-0.0292479
-8.9243827	0.0038668	-0.0075863	-0.0953426	-0.2103367	-0.1035386	-0.0160554	0.0027439	-0.0471626	-0.0433045
-8.8243617	0.0040744	-0.0155591	-0.0914288	-0.2046550	-0.1196507	-0.0180271	-0.0042874	-0.0736752	-0.0549855
-8.7243761	0.0041382	-0.0227578	-0.0999135	-0.2000939	-0.1293110	-0.0199400	-0.0020224	-0.0839211	-0.0585159
-8.6243820	0.0047168	-0.0327427	-0.1026336	-0.1965975	-0.1338681	-0.0216652	0.0082633	-0.0953721	-0.0494413
-8.5243072	0.0065068	-0.0451006	-0.0992320	-0.1965099	-0.1307260	-0.0217312	0.0226608	-0.1057166	-0.0312118
-8.4243942	0.0088618	-0.0563469	-0.1020667	-0.1995346	-0.1186767	-0.0209166	0.0277079	-0.1077147	-0.0198379
-8.3243884	0.0106892	-0.0652463	-0.0985823	-0.2032716	-0.1062875	-0.0201251	0.0252504	-0.1092871	-0.0124337
-8.2243855	0.0126804	-0.0765539	-0.1011268	-0.2082218	-0.0868438	-0.0199577	0.0192301	-0.1099958	-0.0133286
-8.1243958	0.0139239	-0.0890348	-0.0873527	-0.2126039	-0.0658412	-0.0210159	0.0135250	-0.1079488	-0.0140572
-8.0243389	0.0149969	-0.0980598	-0.0961464	-0.2145146	-0.0520952	-0.0225582	0.0103096	-0.1032715	-0.0277773
-7.9243648	0.0157385	-0.1088735	-0.0961151	-0.2157505	-0.0316208	-0.0256722	0.0085370	-0.0997319	-0.0384764
-7.8243991	0.0162949	-0.1213623	-0.0929689	-0.2151780	-0.0104328	-0.0303089	0.0104267	-0.1036574	-0.0464345
-7.7243773	0.0170059	-0.1308527	-0.0964945	-0.2133168	-0.0119870	-0.0327565	0.0123011	-0.1109840	-0.0528517
-7.6243958	0.0176130	-0.1431822	-0.0942004	-0.2095159	-0.0328359	-0.0351828	0.0126613	-0.1195330	-0.0531070
-7.5243860	0.0188436	-0.1582806	-0.1014774	-0.2046553	-0.0728508	-0.0379578	0.0126486	-0.1184750	-0.0520857
-7.4243494	0.0198456	-0.1704266	-0.0980923	-0.2023312	-0.1073169	-0.0402374	0.0147812	-0.1157931	-0.0412981
-7.3244045	0.0208062	-0.1803629	-0.0981811	-0.2010032	-0.1311189	-0.0423579	0.0150385	-0.1133225	-0.0347152
-7.2243497	0.0218255	-0.1922321	-0.0993184	-0.2013146	-0.1505250	-0.0449401	0.0132647	-0.1105006	-0.0292351
-7.1243668	0.0227092	-0.2054357	-0.0980802	-0.2044685	-0.1555255	-0.0479289	0.0102949	-0.1100373	-0.0216551
-7.0243750	0.0231018	-0.2144887	-0.0959802	-0.2082074	-0.1472310	-0.0500134	0.0083368	-0.1105678	-0.0187290
-6.9243597	0.0233651	-0.2258605	-0.0948879	-0.2140181	-0.1258996	-0.0529990	0.0086784	-0.1098634	-0.0223158
-6.8243635	0.0241692	-0.2385219	-0.0868819	-0.2205395	-0.0912926	-0.0562017	0.0141866	-0.1070960	-0.0277659
-6.7243369	0.0252479	-0.2475306	-0.0870532	-0.2234275	-0.0676878	-0.0578063	0.0234478	-0.1038214	-0.0400889
-6.6243948	0.0280816	-0.2590138	-0.0932423	-0.2244464	-0.0430932	-0.0597363	0.0366724	-0.0990950	-0.0594037
-6.5243267	0.0310653	-0.2705180	-0.0889078	-0.2221684	-0.0276236	-0.0609949	0.0472473	-0.0951433	-0.0663519
-6.4242330	0.0353042	-0.2824853	-0.0927050	-0.2169563	-0.0266468	-0.0618386	0.0425185	-0.0907551	-0.0706995
-6.3243633	0.0372941	-0.2909177	-0.0940059	-0.2126618	-0.0365974	-0.0626246	0.0266663	-0.0909176	-0.0673139
-6.2243300	0.0382824	-0.3017217	-0.0980923	-0.2077963	-0.0609006	-0.0652210	0.0026591	-0.0927937	-0.0608751
-6.1243840	0.0367950	-0.3130867	-0.0982134	-0.2043088	-0.0967875	-0.0693255	-0.0160218	-0.0948643	-0.0457888
-6.0243781	0.0352792	-0.3207641	-0.0948785	-0.2034800	-0.1193592	-0.0719643	-0.0156807	-0.0950775	-0.0346639
-5.9243761	0.0333146	-0.3311075	-0.1001339	-0.2039306	-0.1388012	-0.0743084	-0.0073448	-0.0935218	-0.0299169
-5.8244127	0.0331857	-0.3419751	-0.0972462	-0.2058603	-0.1436599	-0.0751444	0.0092420	-0.0917130	-0.0245424
-5.7243958	0.0341222	-0.3495025	-0.0952173	-0.2077023	-0.1359031	-0.0747676	0.0190064	-0.0893358	-0.0261688
-5.6244076	0.0360810	-0.3587441	-0.0930077	-0.2104256	-0.1167985	-0.0742676	0.0266372	-0.0859946	-0.0292283
-5.5243809	0.0386562	-0.3688910	-0.0894562	-0.2137531	-0.0878627	-0.0743658	0.0247837	-0.0801660	-0.0343314
-5.4243855	0.0401394	-0.3759494	-0.0909594	-0.2155240	-0.0695708	-0.0754317	0.0212777	-0.0773637	-0.0412529
-5.3243786	0.0407551	-0.3840556	-0.0849441	-0.2167474	-0.0508845	-0.0776777	0.0172284	-0.0754156	-0.0447630
-5.2243515	0.0417474	-0.3925554	-0.0879886	-0.2165836	-0.0389476	-0.0806641	0.0128481	-0.0725375	-0.0535259
-5.1241871	0.0420697	-0.4021208	-0.0919698	-0.2147831	-0.0369880	-0.0850878	0.0052185	-0.0705661	-0.0589323
-5.0244068	0.0410734	-0.4085527	-0.0922867	-0.2127880	-0.0453465	-0.0885923	-0.0029929	-0.0713203	-0.0570323
-4.9243950	0.0393632	-0.4165982	-0.0942822	-0.2102740	-0.0649284	-0.0928062	-0.0137791	-0.0725921	-0.0514686
-4.8242381	0.0365480	-0.4256875	-0.0961430	-0.2085944	-0.0948288	-0.0969006	-0.0221918	-0.0732320	-0.0417625
-4.7243804	0.0347342	-0.4315240	-0.0931649	-0.2089011	-0.1127991	-0.0985584	-0.0190580	-0.0735311	-0.0296617
-4.6243763	0.0318322	-0.4396069	-0.1006961	-0.2104875	-0.1271551	-0.0997254	-0.0100282	-0.0706510	-0.0281531
-4.5244273	0.0331205	-0.4472875	-0.0899583	-0.2125726	-0.1285040	-0.1002978	0.0056504	-0.0678808	-0.0207495
-4.4241907	0.0328726	-0.4531880	-0.0931688	-0.2132620	-0.1201688	-0.1011230	0.0116898	-0.0646846	-0.0300529
-4.3243748	0.0334501	-0.4603889	-0.0959800	-0.2131856	-0.1021462	-0.1030422	0.0113230	-0.0618767	-0.0407816
-4.2241948	0.0340901	-0.4679295	-0.0911811	-0.2123751	-0.0771270	-0.1070204	0.0022316	-0.0597865	-0.0447598
-4.1243510	0.0328299	-0.4728764	-0.0873297	-0.2118434	-0.0631649	-0.1103964	-0.0062004	-0.0595648	-0.0450010
-4.0243515	0.0312874	-0.4795934	-0.0904871	-0.2115305	-0.0519898	-0.1143763	-0.0119905	-0.0585284	-0.0506018
-3.9244086	0.0272642	-0.4855956	-0.0848278	-0.2117519	-0.0482219	-0.1176229	-0.0105838	-0.0579651	-0.0467354
-3.8241754	0.0268904	-0.4919207	-0.0916510	-0.2122997	-0.0507737	-0.1193974	-0.0047691	-0.0561895	-0.0507847
-3.7243346	0.0259764	-0.4984901	-0.0957094	-0.2127714	-0.0582494	-0.1209466	-0.0023788	-0.0553467	-0.0500062
-3.6243668	0.0240730	-0.5045384	-0.0950318	-0.2129166	-0.0709284	-0.1230216	-0.0077815	-0.0531901	-0.0445193
-3.5244191	0.0216946	-0.5109599	-0.0962433	-0.2123931	-0.0901179	-0.1265177	-0.0209224	-0.0500430	-0.0394943
-3.4243771	0.0194209	-0.5151138	-0.0964194	-0.2116423	-0.1033709	-0.1294537	-0.0289621	-0.0481351	-0.0371862
-3.3243453	0.0165574	-0.5198064	-0.0940313	-0.2103866	-0.1173873	-0.1331048	-0.0353728	-0.0461447	-0.0342562
-3.2243822	0.0124761	-0.5252167	-0.0963092	-0.2092238	-0.1246398	-0.1369400	-0.0320594	-0.0442620	-0.0359486
-3.1243827	0.0103591	-0.5289501	-0.0974882	-0.2092316	-0.1209697	-0.1390046	-0.0227887	-0.0438016	-0.0353772
-3.0243702	0.0108895	-0.5330955	-0.0899932	-0.2103421	-0.1071267	-0.1410940	-0.0089725	-0.0457185	-0.0277674
-2.9243530	0.0097792	-0.5389709	-0.0918096	-0.2126047	-0.0833516	-0.1433818	-0.0002747	-0.0471863	-0.0291846
-2.8243515	0.0090846	-0.5426643	-0.0866537	-0.2138662	-0.0679652	-0.1450779	0.0009575	-0.0487893	-0.0266476
-2.7243420	0.0085084	-0.5481318	-0.0890332	-0.2145143	-0.0535451	-0.1470280	-0.0009136	-0.0488616	-0.0312555
-2.6243597	0.0062731	-0.5541218	-0.0889561	-0.2137409	-0.0464930	-0.1493942	-0.0087470	-0.0480643	-0.0333989
-2.5244155	0.0049900	-0.5594244	-0.0940098	-0.2125796	-0.0495981	-0.1519979	-0.0217698	-0.0451749	-0.0392021
-2.4243681	0.0013536	-0.5630271	-0.0942813	-0.2112693	-0.0576639	-0.1552687	-0.0356049	-0.0426996	-0.0404214
-2.3244137	-0.0036141	-0.5671355	-0.0973919	-0.2098421	-0.0723697	-0.1609661	-0.0505418	-0.0376755	-0.0429242
-2.2243366	-0.0106984	-0.5701400	-0.0929902	-0.2088086	-0.0931051	-0.1685908	-0.0577033	-0.0343110	-0.0358053
-2.1243185	-0.0155051	-0.5727344	-0.0953932	-0.2076992	-0.1069707	-0.1732509	-0.0508548	-0.0331438	-0.0325478
-2.0243517	-0.0202913	-0.5758681	-0.0991258	-0.2079754	-0.1174376	-0.1765505	-0.0323039	-0.0304161	-0.0284170
-1.9242063	-0.0199411	-0.5787478	-0.0930814	-0.2097793	-0.1188269	-0.1766608	-0.0075298	-0.0276736	-0.0190253
-1.8243561	-0.0213694	-0.5812702	-0.0962920	-0.2115075	-0.1137458	-0.1756443	-0.0014704	-0.0255195	-0.0235042
-1.7243420	-0.0194785	-0.5839787	-0.0896342	-0.2135599	-0.1028987	-0.1753502	-0.0042771	-0.0262939	-0.0252224
-1.6244157	-0.0206164	-0.5874009	-0.0902196	-0.2150047	-0.0870256	-0.1784327	-0.0160811	-0.0253546	-0.0368090
-1.5241554	-0.0222706	-0.5898856	-0.0946993	-0.2149650	-0.0767984	-0.1821897	-0.0223503	-0.0247016	-0.0458863
-1.4243717	-0.0253651	-0.5927170	-0.0959857	-0.2139149	-0.0661646	-0.1875656	-0.0218220	-0.0236575	-0.0506530
-1.3243538	-0.0288665	-0.5958383	-0.0976185	-0.2118287	-0.0582904	-0.1927049	-0.0136965	-0.0220799	-0.0498424
-1.2243904	-0.0314194	-0.5977310	-0.0978381	-0.2104398	-0.0573011	-0.1949985	-0.0109644	-0.0214556	-0.0430698
-1.1243712	-0.0333215	-0.6002569	-0.1005660	-0.2090960	-0.0630753	-0.1971678	-0.0144525	-0.0208015	-0.0331737
-1.0243876	-0.0372212	-0.6021496	-0.0993449	-0.2080561	-0.0801170	-0.2004542	-0.0260268	-0.0200887	-0.0179683
-0.9243348	-0.0401804	-0.6026531	-0.0941791	-0.2078035	-0.0942189	-0.2035364	-0.0352474	-0.0197074	-0.0083323
-0.8243195	-0.0434761	-0.6034225	-0.0901215	-0.2079771	-0.1093272	-0.2079330	-0.0390270	-0.0185212	-0.0038933
-0.7243220	-0.0478381	-0.6046641	-0.0919881	-0.2086983	-0.1170063	-0.2118406	-0.0343409	-0.0175714	-0.0088373
-0.6243832	-0.0515583	-0.6062787	-0.0937195	-0.2100558	-0.1145675	-0.2147410	-0.0237236	-0.0172385	-0.0195991
-0.5242150	-0.0524564	-0.6075808	-0.0931141	-0.2110877	-0.1076560	-0.2160609	-0.0196027	-0.0170299	-0.0266071
-0.4243574	-0.0522493	-0.6091726	-0.0880401	-0.2122446	-0.0963436	-0.2177749	-0.0181184	-0.0170191	-0.0303898
-0.3242284	-0.0547500	-0.6114119	-0.0915128	-0.2128863	-0.0822061	-0.2206809	-0.0212102	-0.0162027	-0.0374678
-0.2242112	-0.0572959	-0.6125103	-0.0886112	-0.2128153	-0.0736145	-0.2231556	-0.0230058	-0.0165865	-0.0361858
-0.1243745	-0.0596370	-0.6145351	-0.0932496	-0.2124770	-0.0656967	-0.2265294	-0.0248898	-0.0176874	-0.0360534
-0.0244099	-0.0635793	-0.6164840	-0.0953588	-0.2121657	-0.0628119	-0.2306655	-0.0272252	-0.0178041	-0.0280299
0.0758339	-0.0695416	-0.6184340	-0.0919698	-0.2125644	-0.0669549	-0.2339730	-0.0319639	-0.0374000	-0.0206158
0.1756477	-0.0705777	-0.6217153	-0.0971863	-0.2123585	-0.0812919	-0.2354431	-0.0188847	-0.0453692	-0.0195458
0.2756421	-0.0715142	-0.6259755	-0.0977288	-0.2116555	-0.0967671	-0.2336253	0.0198849	-0.0234673	-0.0196732
0.3758285	-0.0676774	-0.6288583	-0.0909494	-0.2106388	-0.1014442	-0.2324236	0.0418142	-0.0202800	-0.0167168
0.4758298	-0.0650531	-0.6318409	-0.0942146	-0.2090169	-0.1038946	-0.2312372	0.0466506	-0.0179421	-0.0252125
0.5758236	-0.0613726	-0.6351728	-0.0968050	-0.2072871	-0.1047246	-0.2298901	0.0436646	-0.0185593	-0.0313836
0.6756155	-0.0535229	-0.6385468	-0.0900973	-0.2061638	-0.1035859	-0.2283855	0.0422421	-0.0213105	-0.0298090
0.7756365	-0.0506782	-0.6416331	-0.0923272	-0.2061867	-0.1024702	-0.2276026	0.0414675	-0.0226859	-0.0327248
0.8756247	-0.0455334	-0.6448034	-0.0887613	-0.2069661	-0.1005888	-0.2270808	0.0412982	-0.0247236	-0.0307939
0.9756536	-0.0411824	-0.6495094	-0.0912126	-0.2083724	-0.0980458	-0.2264703	0.0432512	-0.0250035	-0.0358171
1.0757811	-0.0377702	-0.6528276	-0.0924681	-0.2094286	-0.0957941	-0.2255124	0.0486020	-0.0244836	-0.0391136
1.1756183	-0.0330610	-0.6572962	-0.0964261	-0.2105964	-0.0922833	-0.2232865	0.0561681	-0.0230163	-0.0422537
1.2756321	-0.0268792	-0.6619031	-0.0923256	-0.2114532	-0.0881678	-0.2192404	0.0623524	-0.0233059	-0.0370681
1.3757606	-0.0222245	-0.6655954	-0.0955985	-0.2117994	-0.0864010	-0.2161958	0.0613246	-0.0244394	-0.0379848
1.4756221	-0.0174107	-0.6699308	-0.0951903	-0.2121379	-0.0857414	-0.2132008	0.0547007	-0.0262769	-0.0357233
1.5755917	-0.0122396	-0.6751736	-0.0985152	-0.2127436	-0.0885543	-0.2115659	0.0449270	-0.0281615	-0.0370012
1.6756186	-0.0098630	-0.6786349	-0.0956255	-0.2130406	-0.0925284	-0.2113763	0.0382898	-0.0305664	-0.0359986
1.7756045	-0.0069587	-0.6831728	-0.0920985	-0.2131326	-0.0985705	-0.2118021	0.0319963	-0.0327068	-0.0343495
1.8755919	-0.0043914	-0.6876703	-0.0940098	-0.2129359	-0.1037377	-0.2118510	0.0305243	-0.0332626	-0.0365502
1.9756227	-0.0007638	-0.6923247	-0.0937293	-0.2125114	-0.1055056	-0.2106865	0.0373293	-0.0299613	-0.0406729
2.0757622	0.0055426	-0.6970967	-0.0883988	-0.2117388	-0.1046447	-0.2080241	0.0461397	-0.0270699	-0.0433874
2.1755889	0.0100723	-0.7016563	-0.0922141	-0.2105634	-0.1015902	-0.2044070	0.0516326	-0.0228650	-0.0532287
2.2757842	0.0168724	-0.7066277	-0.0929054	-0.2090713	-0.0966170	-0.2000918	0.0599060	-0.0234814	-0.0521188
2.3756278	0.0225440	-0.7112838	-0.0970719	-0.2082542	-0.0907655	-0.1974800	0.0627471	-0.0248893	-0.0470881
2.4756324	0.0269356	-0.7144740	-0.0962734	-0.2088158	-0.0850934	-0.1960069	0.0633233	-0.0258652	-0.0373396
2.5756052	0.0331575	-0.7192382	-0.0969775	-0.2100156	-0.0789762	-0.1944915	0.0621334	-0.0249556	-0.0271161
2.6755924	0.0384039	-0.7231207	-0.0980923	-0.2109562	-0.0792900	-0.1934077	0.0605146	-0.0233515	-0.0248895
2.7756058	0.0405012	-0.7256000	-0.0931411	-0.2111742	-0.0839079	-0.1922169	0.0580473	-0.0228783	-0.0233790
2.8756360	0.0456143	-0.7297227	-0.0919094	-0.2106908	-0.0947439	-0.1906309	0.0536748	-0.0224367	-0.0304132
2.9756040	0.0503204	-0.7329237	-0.0868678	-0.2104991	-0.1039627	-0.1896183	0.0498388	-0.0225878	-0.0327057
3.0756649	0.0527247	-0.7364651	-0.0934503	-0.2104474	-0.1103139	-0.1889662	0.0456594	-0.0224161	-0.0433373
3.1757827	0.0602550	-0.7414769	-0.0929515	-0.2116482	-0.1128246	-0.1884780	0.0472272	-0.0258146	-0.0500491
3.2758062	0.0677898	-0.7460006	-0.0909494	-0.2127441	-0.1092991	-0.1880144	0.0546732	-0.0269829	-0.0525009
3.3756093	0.0717068	-0.7503140	-0.0978075	-0.2136755	-0.1022286	-0.1872825	0.0646097	-0.0265934	-0.0585957
3.4755996	0.0794090	-0.7556637	-0.0934686	-0.2137431	-0.0932183	-0.1858188	0.0740007	-0.0287624	-0.0534594
3.5756782	0.0867344	-0.7615581	-0.0940098	-0.2125839	-0.0860121	-0.1833840	0.0784753	-0.0318978	-0.0491623
3.6756101	0.0939648	-0.7669278	-0.0987515	-0.2112233	-0.0834421	-0.1809009	0.0756164	-0.0327660	-0.0478059
3.7756106	0.0998987	-0.7721721	-0.1005299	-0.2096327	-0.0835521	-0.1785284	0.0655645	-0.0327432	-0.0437357
3.8756416	0.1046605	-0.7772382	-0.1005088	-0.2086099	-0.0854640	-0.1779864	0.0488533	-0.0303541	-0.0363701
3.9756170	0.1051073	-0.7787021	-0.0933282	-0.2087607	-0.0878059	-0.1793619	0.0368130	-0.0295328	-0.0247121
4.0756219	0.1081590	-0.7828211	-0.0956908	-0.2099038	-0.0925404	-0.1823410	0.0291960	-0.0281385	-0.0216864
4.1756426	0.1109753	-0.7864139	-0.0910367	-0.2123235	-0.0995578	-0.1853806	0.0351862	-0.0289664	-0.0147895
4.2756306	0.1134535	-0.7894247	-0.0941972	-0.2141391	-0.1018169	-0.1856075	0.0489441	-0.0259674	-0.0189771
4.3756401	0.1197435	-0.7935729	-0.0924734	-0.2161086	-0.1015373	-0.1833390	0.0699829	-0.0210097	-0.0236725
4.4756283	0.1297598	-0.7987199	-0.0892630	-0.2171604	-0.0979437	-0.1780407	0.0886377	-0.0148032	-0.0317197
4.5756370	0.1370856	-0.8022288	-0.0875360	-0.2165184	-0.0957361	-0.1743273	0.0901819	-0.0102056	-0.0392199
4.6755848	0.1456951	-0.8053653	-0.0930853	-0.2142253	-0.0940334	-0.1712229	0.0807199	-0.0060473	-0.0530180
4.7755907	0.1538962	-0.8087379	-0.0920392	-0.2103668	-0.0920352	-0.1710184	0.0637819	-0.0023445	-0.0557233
4.8756093	0.1588592	-0.8105390	-0.0953378	-0.2080726	-0.0909016	-0.1725426	0.0559316	-0.0006288	-0.0511303
4.9755845	0.1648559	-0.8117624	-0.0960514	-0.2062347	-0.0914032	-0.1751439	0.0513860	-0.0010119	-0.0372409
5.0756416	0.1693226	-0.8125476	-0.0962814	-0.2061651	-0.0932530	-0.1761866	0.0568621	-0.0016273	-0.0278363
5.1756081	0.1764980	-0.8139492	-0.0968776	-0.2074530	-0.0956172	-0.1753773	0.0664794	0.0016187	-0.0213186
5.2758149	0.1835111	-0.8131984	-0.0889078	-0.2090512	-0.0975667	-0.1734153	0.0695550	0.0013649	-0.0128481
5.3756201	0.1888520	-0.8150832	-0.0941204	-0.2106976	-0.0993708	-0.1718302	0.0693410	-0.0004725	-0.0155852
5.4756431	0.1974301	-0.8169766	-0.0912032	-0.2134415	-0.0997171	-0.1706335	0.0677230	-0.0051879	-0.0130146
5.5756667	0.2041638	-0.8190897	-0.0878882	-0.2153110	-0.0976255	-0.1707106	0.0653171	-0.0075014	-0.0137339
5.6756352	0.2096969	-0.8209516	-0.0890749	-0.2164442	-0.0947826	-0.1712182	0.0624425	-0.0066466	-0.0204688
5.7756431	0.2172669	-0.8226799	-0.0965589	-0.2162192	-0.0919332	-0.1717546	0.0610871	-0.0019400	-0.0372426
5.8756337	0.2213908	-0.8254790	-0.0909494	-0.2149415	-0.0909281	-0.1713539	0.0640192	-0.0004939	-0.0406474
5.9756247	0.2272103	-0.8274839	-0.0926030	-0.2133999	-0.0902684	-0.1702967	0.0692113	-0.0009547	-0.0454702
6.0756216	0.2358379	-0.8304019	-0.0983899	-0.2118451	-0.0889175	-0.1685473	0.0720945	-0.0031403	-0.0481112
6.1756150	0.2422664	-0.8327275	-0.0995931	-0.2112675	-0.0882716	-0.1678463	0.0680083	-0.0064591	-0.0448122
6.2756178	0.2452329	-0.8335136	-0.0945382	-0.2111475	-0.0891405	-0.1683243	0.0593629	-0.0097690	-0.0349635
6.3756211	0.2507938	-0.8364445	-0.0982092	-0.2112573	-0.0919753	-0.1698341	0.0476789	-0.0123155	-0.0313263
6.4756242	0.2552467	-0.8386584	-0.0942849	-0.2115371	-0.0965036	-0.1713661	0.0424097	-0.0143001	-0.0251826
6.5756180	0.2591206	-0.8407073	-0.0933754	-0.2117183	-0.0983931	-0.1712639	0.0482017	-0.0144074	-0.0266245
6.6756365	0.2649739	-0.8435140	-0.0930156	-0.2118942	-0.0970987	-0.1701011	0.0593013	-0.0129184	-0.0321564
6.7756242	0.2730834	-0.8468198	-0.0914340	-0.2121145	-0.0914502	-0.1684012	0.0692447	-0.0117567	-0.0361652
6.8757770	0.2777466	-0.8486843	-0.0874567	-0.2123158	-0.0872284	-0.1683261	0.0679317	-0.0128732	-0.0334824
6.9756608	0.2850556	-0.8521881	-0.0923840	-0.2127191	-0.0826892	-0.1694908	0.0644591	-0.0131518	-0.0371721
7.0756183	0.2926344	-0.8560700	-0.0966279	-0.2132314	-0.0804850	-0.1718022	0.0609275	-0.0144848	-0.0380988
7.1756042	0.2959642	-0.8584163	-0.0967322	-0.2134637	-0.0814863	-0.1731266	0.0602464	-0.0154404	-0.0337862
7.2756306	0.2990713	-0.8610482	-0.0940006	-0.2135722	-0.0836624	-0.1737599	0.0630114	-0.0143638	-0.0265924
7.3756526	0.3029066	-0.8635265	-0.0900110	-0.2135319	-0.0865370	-0.1733161	0.0665113	-0.0112591	-0.0198477
7.4756004	0.3110614	-0.8666311	-0.0948007	-0.2128497	-0.0900893	-0.1722517	0.0643121	-0.0071232	-0.0249145
7.5758011	0.3169103	-0.8684708	-0.0909494	-0.2118377	-0.0941922	-0.1720635	0.0585708	-0.0032275	-0.0277170
7.6756273	0.3206868	-0.8703587	-0.0973638	-0.2104369	-0.0977184	-0.1727210	0.0540556	-0.0005105	-0.0363299
7.7756065	0.3294167	-0.8718679	-0.0955177	-0.2094362	-0.1006041	-0.1739508	0.0545421	-0.0013579	-0.0359970
7.8756150	0.3397421	-0.8725367	-0.0899298	-0.2096421	-0.0988667	-0.1743747	0.0646092	-0.0016834	-0.0305524
7.9756214	0.3460166	-0.8740077	-0.0912299	-0.2108822	-0.0953854	-0.1736100	0.0737194	0.0025083	-0.0299418
8.0755960	0.3552717	-0.8754959	-0.0920861	-0.2133598	-0.0903170	-0.1716316	0.0771062	0.0073857	-0.0261063
8.1756324	0.3621670	-0.8764192	-0.0919698	-0.2155506	-0.0883199	-0.1700970	0.0734349	0.0086163	-0.0214337
8.2758211	0.3682473	-0.8773007	-0.0922109	-0.2173052	-0.0882326	-0.1691947	0.0676431	0.0090838	-0.0217670
8.3757952	0.3755072	-0.8777088	-0.0960835	-0.2183116	-0.0885415	-0.1689039	0.0612833	0.0110381	-0.0305931
8.4758239	0.3808178	-0.8802458	-0.0923219	-0.2176430	-0.0878720	-0.1691094	0.0578522	0.0126548	-0.0377205
8.5756186	0.3842519	-0.8817592	-0.0896176	-0.2161413	-0.0870442	-0.1694031	0.0598659	0.0148911	-0.0443887
8.6757683	0.3911946	-0.8823424	-0.0952638	-0.2136315	-0.0863135	-0.1699652	0.0632590	0.0172485	-0.0563103
8.7757655	0.3964114	-0.8821711	-0.0916053	-0.2107118	-0.0866617	-0.1709500	0.0679128	0.0159878	-0.0573161
8.8757450	0.4019738	-0.8823779	-0.0940121	-0.2093104	-0.0878247	-0.1716344	0.0714986	0.0138084	-0.0568992
8.9755871	0.4089541	-0.8814329	-0.0929724	-0.2084926	-0.0898409	-0.1724561	0.0745729	0.0093411	-0.0470927
9.0756396	0.4180267	-0.8822108	-0.0944412	-0.2089673	-0.0905239	-0.1725652	0.0767671	0.0045230	-0.0335606
9.1757980	0.4240964	-0.8846288	-0.0995746	-0.2100231	-0.0900281	-0.1720943	0.0774077	0.0028538	-0.0258107
9.2756347	0.4319907	-0.8853570	-0.0974608	-0.2118348	-0.0893531	-0.1711114	0.0767967	0.0008810	-0.0121579
9.3755663	0.4406402	-0.8868211	-0.0960017	-0.2141643	-0.0891673	-0.1698043	0.0747093	-0.0004852	-0.0040478
9.4756019	0.4464393	-0.8879202	-0.0949900	-0.2154316	-0.0891177	-0.1690480	0.0720732	0.0013732	-0.0052916
9.5756022	0.4534449	-0.8893072	-0.0932440	-0.2162879	-0.0890509	-0.1683304	0.0708160	0.0048712	-0.0133971
9.6755837	0.4614584	-0.8910293	-0.0913986	-0.2160700	-0.0888985	-0.1674926	0.0716537	0.0101132	-0.0288637
9.7755981	0.4672992	-0.8920773	-0.0919208	-0.2151768	-0.0884317	-0.1667724	0.0727363	0.0120997	-0.0409084
9.8756129	0.4740896	-0.8937414	-0.0880267	-0.2134017	-0.0872085	-0.1657923	0.0746635	0.0105873	-0.0481906
9.9756334	0.4825704	-0.8951337	-0.0890059	-0.2110080	-0.0849237	-0.1650085	0.0771620	0.0081604	-0.0531181
10.0756421	0.4877908	-0.8951485	-0.0881599	-0.2098170	-0.0834386	-0.1649262	0.0780753	0.0060082	-0.0464222
10.1756490	0.4990631	-0.8990955	-0.0970719	-0.2092712	-0.0822006	-0.1653084	0.0796908	0.0040705	-0.0395844
10.2756401	0.5045967	-0.8991608	-0.0962926	-0.2097932	-0.0825121	-0.1654224	0.0810325	0.0034227	-0.0278544
10.3757527	0.5139644	-0.9006750	-0.0979035	-0.2110333	-0.0850751	-0.1649518	0.0814020	0.0055744	-0.0203962
10.4756475	0.5209795	-0.9008610	-0.0960514	-0.2119504	-0.0887692	-0.1639667	0.0809085	0.0100725	-0.0186348
10.5756467	0.5285829	-0.9010705	-0.0942114	-0.2122745	-0.0927125	-0.1625841	0.0814248	0.0148976	-0.0191582
10.6755973	0.5391962	-0.9012769	-0.0938462	-0.2126434	-0.0957050	-0.1603250	0.0815782	0.0179321	-0.0201493
10.7756419	0.5499694	-0.9016977	-0.0899298	-0.2129304	-0.0944537	-0.1585871	0.0821923	0.0167806	-0.0186401
10.8756401	0.5578353	-0.9018553	-0.0912349	-0.2133345	-0.0907755	-0.1569063	0.0845318	0.0165648	-0.0230479
10.9755835	0.5686967	-0.9023202	-0.0902151	-0.2135212	-0.0842240	-0.1550275	0.0876421	0.0165594	-0.0293082
11.0755907	0.5763422	-0.9027034	-0.0909494	-0.2131947	-0.0801109	-0.1539688	0.0895198	0.0157342	-0.0369645
11.1755789	0.5778538	-0.9020241	-0.0844271	-0.2126266	-0.0781136	-0.1531151	0.0905741	0.0126225	-0.0380822
11.2756268	0.5937079	-0.9048131	-0.0945608	-0.2114576	-0.0804801	-0.1516790	0.0912906	0.0099021	-0.0493343
11.3756265	0.5978790	-0.9045341	-0.0919698	-0.2106410	-0.0852314	-0.1499277	0.0912141	0.0073594	-0.0443695
11.4755863	0.6073763	-0.9072959	-0.0998504	-0.2098028	-0.0913051	-0.1472446	0.0919607	0.0058343	-0.0416570
11.5756326	0.6201933	-0.9070705	-0.0939565	-0.2095024	-0.0960320	-0.1437094	0.0945492	0.0047480	-0.0260558
11.6756227	0.6279368	-0.9094318	-0.1003464	-0.2099903	-0.0970940	-0.1397230	0.0955819	0.0059210	-0.0203697
11.7756214	0.6416806	-0.9094939	-0.0940804	-0.2108445	-0.0944557	-0.1380168	0.0967737	0.0089986	-0.0101934
11.8756575	0.6474403	-0.9103752	-0.1015416	-0.2122798	-0.0882308	-0.1374219	0.0929376	0.0160463	-0.0126240
11.9756132	0.6588206	-0.9093686	-0.0899246	-0.2139537	-0.0840678	-0.1375671	0.0897160	0.0191492	-0.0038458
12.0756027	0.6647931	-0.9090322	-0.0869468	-0.2147060	-0.0838968	-0.1371307	0.0928978	0.0194533	-0.0078712
12.1756329	0.6743825	-0.9086989	-0.0874456	-0.2148847	-0.0856765	-0.1350114	0.0953576	0.0203538	-0.0176914
12.2756157	0.6873826	-0.9077509	-0.0946505	-0.2138714	-0.0881763	-0.1299223	0.0932006	0.0242128	-0.0349835
12.3756421	0.6948557	-0.9080623	-0.0899243	-0.2126083	-0.0906371	-0.1257467	0.0903361	0.0257049	-0.0401126
12.4755937	0.7070134	-0.9072842	-0.0909494	-0.2103128	-0.0941486	-0.1202426	0.0850886	0.0288544	-0.0518294
12.5758221	0.7167386	-0.9059481	-0.0914606	-0.2086113	-0.0943544	-0.1178755	0.0840453	0.0309485	-0.0546167
12.6756593	0.7266016	-0.9044937	-0.0945916	-0.2072582	-0.0919501	-0.1161539	0.0853490	0.0314865	-0.0512536
12.7757978	0.7385065	-0.9016634	-0.0960514	-0.2069079	-0.0876527	-0.1153424	0.0869900	0.0286407	-0.0374913
12.8758295	0.7459782	-0.8984176	-0.0942635	-0.2076886	-0.0850722	-0.1148381	0.0873178	0.0255297	-0.0231094
12.9756216	0.7575677	-0.8986812	-0.0988695	-0.2093615	-0.0839230	-0.1131309	0.0872753	0.0243035	-0.0148350
13.0756585	0.7633321	-0.8953979	-0.0940098	-0.2108205	-0.0838595	-0.1104101	0.0874796	0.0268781	-0.0075861
13.1756608	0.7699639	-0.8933519	-0.0909980	-0.2122368	-0.0844263	-0.1067533	0.0916967	0.0307547	-0.0047807
13.2758008	0.7815095	-0.8908394	-0.0912799	-0.2143853	-0.0850907	-0.1009625	0.1008530	0.0371459	-0.0077347
13.3756244	0.7894488	-0.8894212	-0.0868678	-0.2159854	-0.0862551	-0.0967203	0.1062622	0.0418610	-0.0091217
13.4756370	0.8007608	-0.8847072	-0.0933700	-0.2171424	-0.0877426	-0.0929225	0.1049207	0.0475367	-0.0218623
13.5756157	0.8124426	-0.8856080	-0.0875117	-0.2173037	-0.0873445	-0.0892727	0.0982159	0.0489962	-0.0313888
13.6756439	0.8213194	-0.8843801	-0.0878882	-0.2159368	-0.0885423	-0.0873044	0.0932187	0.0477482	-0.0434472
13.7756500	0.8305784	-0.8828730	-0.0889536	-0.2131440	-0.0910881	-0.0857654	0.0875367	0.0467042	-0.0528386
13.8756063	0.8421653	-0.8805713	-0.0872602	-0.2095169	-0.0941236	-0.0846155	0.0812096	0.0464110	-0.0523806
13.9756529	0.8501835	-0.8779716	-0.0940098	-0.2061678	-0.0952088	-0.0834400	0.0774358	0.0495554	-0.0500258
14.0756687	0.8582693	-0.8750156	-0.0991244	-0.2042744	-0.0945990	-0.0819387	0.0824337	0.0538159	-0.0422534
14.1756111	0.8717224	-0.8666936	-0.0976767	-0.2035778	-0.0925588	-0.0793321	0.0907362	0.0564117	-0.0277896
14.2756204	0.8871578	-0.8555660	-0.0932049	-0.2042998	-0.0894617	-0.0741631	0.1025086	0.0571035	-0.0084080
14.3756503	0.8957517	-0.8562622	-0.0992873	-0.2056826	-0.0873908	-0.0696063	0.1113010	0.0585512	-0.0031894
14.4758413	0.9070825	-0.8482389	-0.0947704	-0.2084766	-0.0853844	-0.0632995	0.1190384	0.0588785	0.0089607
14.5755907	0.9193825	-0.8400681	-0.0887054	-0.2122952	-0.0848285	-0.0565244	0.1205156	0.0604467	0.0118771
14.6757706	0.9289103	-0.8356227	-0.0878652	-0.2142989	-0.0850046	-0.0532343	0.1154097	0.0634813	0.0024374
14.7756483	0.9420504	-0.8288742	-0.0918360	-0.2154227	-0.0843868	-0.0508998	0.1056285	0.0687021	-0.0158437
14.8756677	0.9486195	-0.8261229	-0.0870957	-0.2150934	-0.0834637	-0.0501882	0.0935201	0.0710841	-0.0245093
14.9756244	0.9576590	-0.8205096	-0.0900011	-0.2136153	-0.0843665	-0.0500119	0.0860584	0.0720160	-0.0298923
15.0756124	0.9642288	-0.8148455	-0.0848278	-0.2114760	-0.0842985	-0.0488920	0.0877668	0.0706833	-0.0243430
15.1756393	0.9746667	-0.8104725	-0.0933618	-0.2099843	-0.0840195	-0.0469186	0.0918347	0.0723059	-0.0301816
15.2756639	0.9830597	-0.8034699	-0.0930315	-0.2084581	-0.0852092	-0.0431815	0.0991995	0.0737703	-0.0258272
15.3755822	0.9960285	-0.7973323	-0.0991119	-0.2075572	-0.0871532	-0.0376354	0.1042735	0.0749707	-0.0203033
15.4756229	1.0061311	-0.7881910	-0.0942017	-0.2075744	-0.0886021	-0.0334809	0.1060305	0.0757902	-0.0080836
15.5755825	1.0194070	-0.7791153	-0.0933677	-0.2084409	-0.0907781	-0.0282010	0.1063370	0.0767447	0.0008215
15.6757862	1.0313241	-0.7710022	-0.0889078	-0.2093950	-0.0917272	-0.0248909	0.1032691	0.0765657	0.0072461
15.7756649	1.0405885	-0.7644506	-0.0888936	-0.2105512	-0.0913156	-0.0223240	0.0991858	0.0751130	0.0075214
15.8756442	1.0550511	-0.7561795	-0.0826685	-0.2122425	-0.0906286	-0.0192908	0.0971976	0.0737461	0.0072564
15.9756370	1.0618020	-0.7481584	-0.0909494	-0.2135267	-0.0901660	-0.0166327	0.0973871	0.0769904	-0.0047557
16.0756319	1.0718564	-0.7428959	-0.0881510	-0.2148272	-0.0906367	-0.0132476	0.0995842	0.0788296	-0.0077134
16.1755973	1.0822142	-0.7348762	-0.0909305	-0.2156407	-0.0919546	-0.0090552	0.1006388	0.0827376	-0.0165138
16.2756608	1.0952531	-0.7306834	-0.0868678	-0.2154589	-0.0921346	-0.0042936	0.1032153	0.0888795	-0.0193279
16.3756460	1.1056931	-0.7227952	-0.0895652	-0.2140701	-0.0911506	-0.0003078	0.1081883	0.0950245	-0.0245181
16.4756413	1.1177884	-0.7144953	-0.0905213	-0.2118607	-0.0882096	0.0039069	0.1120546	0.0987035	-0.0241918
16.5757276	1.1293008	-0.7050317	-0.0919698	-0.2095339	-0.0833264	0.0082727	0.1134817	0.1007505	-0.0214002
16.6756575	1.1356006	-0.6925439	-0.0884932	-0.2079497	-0.0804456	0.0123709	0.1114876	0.1006238	-0.0149690
16.7756429	1.1481155	-0.6835649	-0.0922176	-0.2073726	-0.0806737	0.0165726	0.1080701	0.0998949	-0.0125894
16.8756728	1.1565439	-0.6690323	-0.0902096	-0.2083358	-0.0854923	0.0214333	0.1069901	0.0967844	-0.0032066
16.9757857	1.1644857	-0.6601600	-0.0891817	-0.2098438	-0.0905409	0.0246631	0.1065289	0.0951897	-0.0003201
17.0756186	1.1725296	-0.6520034	-0.0979578	-0.2120855	-0.0979191	0.0288567	0.1048059	0.0947497	-0.0075755
17.1756516	1.1901310	-0.6443266	-0.0930007	-0.2139745	-0.1062508	0.0331707	0.1029341	0.0943912	-0.0061053
17.2756206	1.2105301	-0.6377393	-0.0903133	-0.2147386	-0.1142320	0.0375689	0.1011774	0.0934529	-0.0062605
17.3756237	1.2276144	-0.6300309	-0.0897273	-0.2141572	-0.1198682	0.0420392	0.1023102	0.0951984	-0.0078117
17.4756242	1.2317814	-0.6187794	-0.0931520	-0.2127483	-0.1214392	0.0466589	0.1049838	0.0971919	-0.0115198
17.5756209	1.2631576	-0.6126092	-0.0893930	-0.2111679	-0.1187223	0.0513949	0.1126104	0.0984422	-0.0090827
17.6755922	1.2743783	-0.6006227	-0.0919698	-0.2099941	-0.1113766	0.0565392	0.1187678	0.0998172	-0.0103915
17.7756183	1.2887179	-0.5916602	-0.0911296	-0.2096470	-0.1045182	0.0598153	0.1178566	0.0999595	-0.0090155
17.8756221	1.3039758	-0.5803710	-0.0873946	-0.2095668	-0.0974746	0.0631894	0.1146084	0.1005246	-0.0073664
17.9756081	1.3181448	-0.5707698	-0.0960514	-0.2092993	-0.0932050	0.0668007	0.1108515	0.1014692	-0.0151640
18.0757757	1.3232137	-0.5593633	-0.0932708	-0.2087147	-0.0930615	0.0698137	0.1097375	0.0996953	-0.0108751
18.1756431	1.3296792	-0.5438377	-0.0887149	-0.2079327	-0.0956135	0.0747407	0.1107421	0.0972694	-0.0051527
18.2756342	1.3417649	-0.5372686	-0.0950318	-0.2077735	-0.0993169	0.0789717	0.1113979	0.0965348	-0.0076536