# Time	Input
-9.7001096	0.0000000
-9.5999885	0.0000000
-9.4999552	0.0000000
-9.4000492	0.0000000
-9.3000074	0.0000000
-9.1999043	0.0000000
-9.0995226	0.0000000
-8.9999291	0.0000000
-8.9000077	0.0000000
-8.8000765	0.0000000
-8.7000952	0.0000000
-8.5999606	0.0000000
-8.5000225	0.0000000
-8.3999150	0.0000000
-8.3000712	0.0000000
-8.2001021	0.0000000
-8.1000008	0.0000000
-7.9998692	0.0000000
-7.8999706	0.0000000
-7.8000287	0.0000000
-7.6998715	0.0000000
-7.5999990	0.0000000
-7.5000632	0.0000000
-7.4000466	0.0000000
-7.3000138	0.0000000
-7.1999160	0.0000000
-7.0999677	0.0000000
-7.0000420	0.0000000
-6.9000392	0.0000000
-6.8000919	0.0000000
-6.7000271	0.0000000
-6.6000282	0.0000000
-6.5001198	0.0000000
-6.4000494	0.0000000
-6.3000827	0.0000000
-6.2000765	0.0000000
-6.1000026	0.0000000
-5.9999818	0.0000000
-5.9000376	0.0000000
-5.7999450	0.0000000
-5.6999567	0.0000000
-5.6000612	0.0000000
-5.5000515	0.0000000
-5.4000668	0.0000000
-5.3000218	0.0000000
-5.2000302	0.0000000
-5.0999741	0.0000000
-4.9999969	0.0000000
-4.9000264	0.0000000
-4.7999150	0.0000000
-4.6999427	0.0000000
-4.6000860	0.0000000
-4.5000699	0.0000000
-4.4000781	0.0000000
-4.3001027	0.0000000
-4.2000289	0.0000000
-4.1000220	0.0000000
-4.0000430	0.0000000
-3.9000515	0.0000000
-3.8000579	0.0000000
-3.6999892	0.0000000
-3.6000387	0.0000000
-3.5000312	0.0000000
-3.4000233	0.0000000
-3.2999828	0.0000000
-3.1999811	0.0000000
-3.0999731	0.0000000
-2.9998917	0.0000000
-2.9000351	0.0000000
-2.7999398	0.0000000
-2.7000709	0.0000000
-2.5999575	0.0000000
-2.5000425	0.0000000
-2.4000036	0.0000000
-2.3000261	0.0000000
-2.1999537	0.0000000
-2.1000284	0.0000000
-2.0001111	0.0000000
-1.9000876	0.0000000
-1.8000428	0.0000000
-1.6999785	0.0000000
-1.6000161	0.0000000
-1.5000655	0.0000000
-1.4000573	0.0000000
-1.3000765	0.0000000
-1.2000735	0.0000000
-1.0999798	0.0000000
-1.0000445	0.0000000
-0.9000783	0.0000000
-0.8000402	0.0000000
-0.7000676	0.0000000
-0.5999995	0.0000000
-0.4999301	0.0000000
-0.4000210	0.0000000
-0.3001293	0.0000000
-0.1999921	0.0000000
-0.1001290	0.0000000
0.0000000	35.0000000
0.1000128	24.4556942
0.1999296	9.2521448
0.2998938	4.8540583
0.3999237	4.2040973
0.4999565	4.0612864
0.5999450	3.9462905
0.7000906	3.8355513
0.8000172	4.0924664
0.8999852	4.2409840
0.9999450	4.2250967
1.0999104	4.0662107
1.2000986	3.4865503
1.2999713	2.5705402
1.3999916	2.7432199
1.4999007	2.7498765
1.5999511	3.2745464
1.6999273	3.9603045
1.7999340	4.3529382
1.8999265	4.2799468
2.0000927	3.7565234
2.1000361	3.0041025
2.1999613	2.4100118
2.3000371	1.9401332
2.4000635	2.4925363
2.5000133	3.0394826
2.5999611	3.1075261
2.6999278	3.2781701
2.7999135	3.2500165
2.8999073	3.0593588
2.9999775	3.2366796
3.0999519	3.4073455
3.2000343	3.4999051
3.2999788	3.5208881
3.4000225	3.4050047
3.5000722	3.0627959
3.5998996	2.5630453
3.6999345	2.4038513
3.8000338	2.3787162
3.8999242	3.1045694
3.9998851	4.0463886
4.0999532	4.9303045
4.2000617	5.1801519
4.3000010	4.0974054
4.3999437	2.8364186
4.4999754	1.2754291
4.5999903	1.5441341
4.6999639	1.7941924
4.7998676	3.0125079
4.9000187	3.9789846
4.9999752	4.6490135
5.0999836	4.1700287
5.1999424	3.3130808
5.3000522	2.6446271
5.3999544	2.6378376
5.4999370	2.7742097
5.6000840	3.3173952
5.6999800	3.6080368
5.8000292	3.6863825
5.9001024	3.3170328
6.0000653	2.9610510
6.0999442	2.5821998
6.2000563	2.9187822
6.2999380	3.4700906
6.3999649	4.0212932
6.4999913	4.1650362
6.6000056	3.5319712
6.7000558	2.9582279
6.7999322	2.5993142
6.9000125	3.1827252
6.9999066	3.8189588
7.0999416	4.4464145
7.2000018	4.1943688
7.2999739	3.8748813
7.3999483	3.3687375
7.4999214	2.9997590
7.5999818	3.2769284
7.6999299	3.6845481
7.7999199	4.0169635
7.9000084	3.7646341
7.9999429	3.2217636
8.1001285	2.5911994
8.2000650	2.6198146
8.2999370	2.8665500
8.3999334	3.1582742
8.5000479	3.4204175
8.5999987	3.5131910
8.6999670	3.6491718
8.7999235	3.8629150
8.8999567	3.7951953
9.0000123	3.8503377
9.0999081	3.5751748
9.2000922	3.2783041
9.3000067	2.9963555
9.3999772	2.7880454
9.5000061	2.9568403
9.5999588	2.9947329
9.6999514	2.9403839
9.8000719	2.9654655
9.8998979	2.8498220
9.9999265	2.9137146
10.1000305	3.2529573
10.1999117	3.5605083
10.2999268	3.5626502
10.3999229	3.3678730
10.4999749	3.1552875
10.5999393	2.9810557
10.7000146	2.6084781
10.7999754	2.7707145
10.9000468	2.8540902
11.0000161	2.8175306
11.1000115	3.1821125
11.1999583	3.3828459
11.2999508	3.2251177
11.3999657	3.0994732
11.4999501	2.7181034
11.5999590	2.3037508
11.7000983	2.0407345
11.8000379	2.9486682
11.9000287	3.6363096
11.9999232	4.1440229
12.0999378	4.0732617
12.1999434	3.4156976
12.3000087	2.0752516
12.3999299	2.1837564
12.5000525	1.6538861
12.5999488	2.8530738
12.6999260	3.4023535
12.8000589	3.9439399
12.8999892	4.2479706
12.9999739	3.8745906
13.1000630	3.4282291
13.2000451	2.9835706
13.3000248	2.0230732
13.4000745	2.4709547
13.4999980	2.7650084
13.6000289	2.9118228
13.6999916	3.6758938
13.8000028	4.0644403
13.8999706	4.3687296
14.0000668	4.4914589
14.0999194	4.4504986
14.2000886	4.0454988
14.3000179	2.9393649
14.3999040	2.9853203
14.5000225	2.2818766
14.5999749	1.9377795
14.6999432	3.3209629
14.8000161	4.0419240
14.8999647	4.9294815
14.9999201	5.4165049
15.0999729	5.2160015
15.1999744	4.8994708
15.2999252	4.1636286
15.3998390	3.3003311
15.4999373	3.7256439
15.6000627	3.3732636
15.6999250	4.1516585
15.8000197	4.6693363
15.9000015	4.6440053
15.9999452	4.8515944
16.1000402	4.6545134
16.1999265	4.3277459
16.3000417	4.0661707
16.3998623	4.3711438
16.5000161	4.3796535
16.5999918	4.3662519
16.6999434	4.5143280
16.8000067	4.5442772
16.8998318	4.3207259
16.9999503	4.9951382
17.1000115	4.7872071
17.2000860	4.7441196
17.2999560	4.7433662
17.3999160	4.7584887
17.5001144	4.7427225
17.6000259	4.7363458
17.6999437	4.5992737
17.7999096	5.3951249
17.8999148	5.5757670
17.9999130	5.5785789
18.1000266	5.8924923
18.2001080	5.2208772
18.3000253	5.4189677
18.4000535	5.4380245
18.4999992	4.8609524
18.6000082	5.4013724
18.7000184	5.3774724
18.8000492	5.2574415
18.8999370	5.2669487
18.9999677	5.7403135
19.0999788	5.9316049
19.1999460	5.8526087
19.2999555	6.5505910
19.4000637	6.4582839
19.4999017	5.9664826
19.5999677	6.3011093
19.7000287	5.7418327
19.8000458	4.8907704
19.8999470	5.7988181
19.9999296	5.7541080
20.0999680	5.7652535
20.1999775	6.8508921
20.3000512	6.6782269
20.3999654	7.0495505
20.5000315	6.0667548
20.5999826	5.8551173
20.6999875	5.8436761
20.7999711	4.7175698
20.8998508	5.6724067
20.9999770	6.3864212
21.1000909	6.2673430
21.1998776	6.8663354
21.2998871	6.6231742
21.4000179	5.8024735
21.4999273	4.7817464
21.6000151	4.8109527
21.6999396	4.7940664
21.7999672	4.7302256
21.8999483	6.3715663
21.9999583	6.4696012
22.1000110	5.8384242
22.2001091	6.3512225
22.2999411	5.4173851
22.3999654	4.7695026
22.5000397	4.3951750
22.6000771	3.7758975
22.7000038	5.3507099
22.7998863	4.6914563
22.8999204	5.3722548
23.0000100	5.7447300
23.0999926	4.2927833
23.1998822	4.7454686
23.2999188	5.2799444
23.4000916	4.3778806
23.4999931	5.2543807
23.6000353	5.4248967
23.7000069	4.0834527
23.8000125	4.7666883
23.9000310	4.5692372
23.9999542	4.2130589
24.1001388	3.9741063
24.2000532	4.3356347
24.2999439	4.3013892
24.3998976	3.6957428
24.4999675	5.1961021
24.5999967	4.9619775
24.7000586	4.0731235
24.7998904	4.9697752
24.8999503	3.9404154
24.9999524	3.4193752
25.1000115	3.3031342
25.1999726	3.0282540
25.2999939	4.9977918
25.3999629	5.2778664
25.4999974	4.9908648
25.5999800	5.2843628
25.6999508	3.5751076
25.7999844	4.0409422
25.8999936	4.4277039
26.0000850	3.7224858
26.0999219	4.6045928
26.1999969	4.5207391
26.3000031	3.8378258
26.4000274	3.2510922
26.4999470	3.8755977
26.5999073	4.1836247
26.6999560	4.0162945
26.8000535	5.1663995
26.8999480	4.5004969
26.9998989	3.2105472
27.0999887	4.2854538
27.1999887	3.8024008
27.2999488	3.8357856
27.3998956	3.8483572
27.4999626	3.8779178
27.5999316	3.8744280
27.6999547	3.8817084
27.7998922	3.2551100
27.9000394	4.3001633
27.9999542	3.9557023
28.0999636	3.3416743
28.1998431	4.0185871
28.3000225	2.5860879
28.3999836	3.2980070
28.5000026	3.4560387
28.6000422	2.4343567
28.6999864	3.7247977
28.8000494	4.1198707
28.9000046	3.5311215
28.9999432	4.3176241
29.0998950	3.8751392
29.1999887	3.4781885
29.2998953	3.1630456
29.4003471	3.2070239
29.4999532	3.1203904
29.6000125	2.9667625
29.7000097	2.8464530
29.7999631	2.7508762
29.8999196	2.7721729
30.0000166	2.9727168
30.1000100	2.7259982
30.2001175	4.0816169
30.2999322	4.0984445
30.4000476	3.7743437
30.4998927	4.2357335
30.5999214	2.7803988
30.6999560	2.8644795
30.8000184	3.1470854
30.8999882	2.4490559
30.9999455	3.6667387
31.1000187	4.2685981
31.1999767	4.1288462
31.3000077	3.4433165
31.3999657	3.3207450
31.4999683	2.8390882
31.5999700	2.3398299
31.7000207	3.7575796
31.7999885	3.8434341
31.8999117	3.5703294
31.9999864	4.2465372
32.0999944	3.7138534
32.2000205	2.8219645
32.2999296	3.5641580
32.4000118	3.1874657
32.4999777	2.9069154
32.5999670	4.0249820
32.7000914	3.4388664
32.7999183	3.4837911
32.8998930	3.8109834
32.9999951	2.9605715
33.1000192	3.4634385
33.1999014	3.1699336
33.2998912	2.8897316
33.4000535	3.5703645
33.4999214	3.5602274
33.5999270	3.4448230
33.7000543	3.8399827
33.8001073	3.4152188
33.9000036	4.0131803
34.0000182	4.1014380
34.1000120	3.6815729
34.1999229	4.0460296
34.2999642	3.6039500
34.4000591	2.7042387
34.4999150	3.3242996
34.6000366	3.0997376
34.6999411	3.0891032
34.7999790	3.2631938
34.9000097	3.4993188
35.0000330	3.8258166
35.0999869	3.8638394
35.1999396	4.5362587
35.3000686	4.3040376
35.3999299	3.9612007
35.4999263	3.7731550
35.5998986	2.4658394
35.6999552	2.6917174
35.8000689	2.6755247
35.9000543	3.1306496
35.9999734	3.9695079
36.1000755	3.9647212
36.1999229	4.1606169
36.2999283	3.8617163
36.4000855	3.0811369
36.5000151	3.2037454
36.5999944	2.9428329
36.6999688	2.7781005
36.7999488	2.6719220
36.8999002	2.7773626
36.9999224	2.7825789
37.0999480	2.8313553
37.1999565	2.8832443
37.3000323	3.0935235
37.4000632	3.3933818
37.5000745	4.0693388
37.5998620	4.3198891
37.6999529	4.2442131
37.7999667	3.5318499
37.8999391	1.9722152
37.9999209	1.6749957
38.0998953	1.1866764
38.2000084	1.4380563
38.2999539	2.5419264
38.3999043	2.8857541
38.5000932	2.9354703
38.6000494	2.9745326
38.7001073	2.7149408
38.8000364	2.4208362
38.9000320	2.4452684
39.0000906	2.3397706
39.0999519	2.4188924
39.2000133	2.6024494
39.2999549	2.5946627
39.3999032	2.5711598
39.5000463	2.4388149
39.6001178	2.3208506
39.6999316	2.2950509
39.7998943	2.2360198
39.8999127	1.9690553
39.9999465	1.6940486
40.0999846	1.5701513
40.1999585	1.4697772
40.3001239	1.8856531
40.3999222	1.9844322
40.4999304	2.0034842
40.6000340	2.2418571
40.6999565	2.4050090
40.7999795	2.6737299
40.8999462	2.7973742
41.0000018	2.7814331
41.0999511	2.5099518
41.1999107	2.2388005
41.2999649	2.0143075
41.3999880	2.0059638
41.4999739	2.1527019
41.5998792	2.2262397
41.7000420	2.2383199
41.7999572	2.1635766
41.9000563	1.9798720
41.9998623	1.9346951
42.0998904	2.0432940
42.1999419	2.2381482
42.2998902	2.4520066
42.3999503	2.6026957
42.5000965	2.6854243
42.5999588	2.7293401
42.7001800	2.5510280
42.7999923	2.5127490
42.9000100	2.4375660
42.9998694	2.4310884
43.0999859	2.3128207
43.2000028	2.1772959
43.2999396	1.9484903
43.3999918	1.8196154
43.5000238	1.9740754
43.5998925	2.1885560
43.6999713	2.4722884
43.7999089	2.5452657
43.8999199	2.5884037
43.9998533	2.5715742
44.1000143	2.6355700
44.1999926	2.6142602
44.2999117	2.5834844
44.4000120	2.3187521
44.5000579	1.9973627
44.5999460	1.8717005
44.6999895	2.0092452
44.8000287	2.2554941
44.9000466	2.4710541
44.9998994	2.6381707
45.0999959	2.7552714
45.1999086	2.8175659
45.2999470	2.4177837
45.4000622	1.6894060
45.5000957	1.1274734
45.5999921	1.2320888
45.6999956	1.2119519
45.8001454	1.9180254
45.8999772	2.5689015
45.9999155	3.2523370
46.1000077	3.2218397
46.2000609	3.0290291
46.2999711	2.4523146
46.3999045	2.0224903
46.4999724	1.7691674
46.6000223	1.9579152
46.7000031	2.0399301
46.8000451	1.9353904
46.9000566	1.9494073
47.0000778	1.8243492
47.0999634	1.8247764
47.1998948	1.8222673
47.3000445	1.9123440
47.4000627	2.1054373
47.4999311	2.4302173
47.5999741	2.8120663
47.6999539	3.0863261
47.7999928	3.2004523
47.8999506	2.7053831
48.0000717	2.2354453
48.0999608	1.8239906
48.1999155	1.4376653
48.2998899	1.3976903
48.3999785	1.7603476
48.4999703	2.0699196
48.5999685	2.1815591
48.6998966	1.9658237
48.7999498	1.4641622
48.8999560	1.1064562
48.9999199	1.3720046
49.0999043	2.0738735
49.1999365	2.7783148
49.3000243	3.2349951
49.3999304	3.2272425
49.4999880	2.4565887
49.6000156	1.7423116
49.6998856	1.2164029
49.8000031	1.0967240
49.8999959	1.2894357
49.9999537	1.5927538
50.0998861	1.8969975
50.1999718	2.0625978
50.3000128	2.0665097
50.3999841	1.8079355
50.4999217	1.6911111
50.6000392	1.4158369
50.6999142	1.5411946
50.7998981	1.7799081
50.8998884	2.1405621
50.9998461	2.3179269
51.0999447	2.3943806
51.2000225	2.2103722
51.3001075	1.8673428
51.4000640	1.3105048
51.5000159	1.2487807
51.6000338	1.3619925
51.6999572	1.7446800
51.7999734	2.3208129
51.8999619	2.5126464
51.9999465	2.4105732
52.0999780	1.9331759
52.1999201	1.5190014
52.2999552	1.2968601
52.3999698	1.4034059
52.4999196	1.7754470
52.5999793	2.1629024
52.6999391	2.5292215
52.8000911	2.5114539
52.8999324	2.2047074
53.0000067	1.7179333
53.0999603	1.3628149
53.1999107	1.3956749
53.2998116	1.8085086
53.4000973	2.1244893
53.4999409	2.1529014
53.6001190	1.7916040
53.6999245	1.3987902
53.8000479	1.2257974
53.9000847	1.5973068
53.9999094	2.1776347
54.0999181	2.4384842
54.1999775	2.4934008
54.2999004	2.3462882
54.3999373	2.0083852
54.4999767	1.7487663
54.5999644	1.6622841
54.6999242	1.6782609
54.7999654	1.7392391
54.9002230	1.6880513
54.9999314	1.5448132
55.0999084	1.3856008
55.2000236	1.3805808
55.2999291	1.7390753
55.3999662	2.2130835
55.4999677	2.8892782
55.5999478	2.6778355
55.6999084	2.2701490
55.8000177	1.1934866
55.8999680	0.5899533
55.9998922	0.2024707
56.0999365	0.3405238
56.2001357	1.2253823
56.2999683	1.9987644
56.3999811	2.6962883
56.4999516	2.7441072
56.5999444	2.4880669
56.7000108	1.8516076
56.7998236	1.1318035
56.8999429	0.5848222
56.9999424	0.2538147
57.0999537	0.4287163
57.2001958	0.9609423
57.3000768	1.6926570
57.3999268	2.1704140
57.4998991	2.0338557
57.5999944	1.3276775
57.6998751	0.5686971
57.8000701	0.2286816
57.9000049	0.3894278
57.9998300	1.1465276
58.1001280	1.7627883
58.1999168	2.0692191
58.3000251	1.9078060
58.3998981	1.5918647
58.4999316	0.9903293
58.6000067	0.7496286
58.6999744	0.4247874
58.7999933	0.5844405
58.9000899	0.8314809
58.9999690	1.1835424
59.1001021	1.3850425
59.1999316	1.2856810
59.3000041	1.0300975
59.3999245	0.7902508
59.5000120	0.4937647
59.5999982	0.6272299
59.6999698	0.6061438
59.8000215	0.6495609
59.8999662	0.7153664
59.9271035	0.0000000
