# Time	x	y	z	roll	pitch	yaw	vx	vy	vz	
-4.3360625	0.0000000	-0.0000000	-0.4042147	-0.1872199	-0.2675310	2.5586434	0.0000000	-0.0000000	-0.0000000
-4.2362483	-0.0000605	0.0002742	-0.4062563	-0.1863565	-0.2586366	2.5576585	0.0040587	-0.0037703	-0.0001163
-4.1361620	-0.0001320	0.0009822	-0.4081661	-0.1848977	-0.2499899	2.5566780	0.0073427	-0.0090176	0.0047029
-4.0362668	-0.0000033	0.0019537	-0.4075368	-0.1850198	-0.2455200	2.5560233	0.0083871	-0.0137591	0.0172833
-3.9364659	0.0004436	0.0029739	-0.4082963	-0.1866117	-0.2468179	2.5563148	0.0085469	-0.0164780	0.0312346
-3.8363994	0.0010789	0.0037694	-0.4063432	-0.1897246	-0.2536890	2.5577001	0.0081077	-0.0170230	0.0378635
-3.7363996	0.0015916	0.0044535	-0.4118459	-0.1924695	-0.2636147	2.5600826	0.0081591	-0.0129561	0.0303831
-3.6363753	0.0016778	0.0049659	-0.4123780	-0.1939222	-0.2730465	2.5632981	0.0093830	-0.0054007	0.0199205
-3.5362842	0.0012092	0.0052242	-0.4099995	-0.1941765	-0.2807494	2.5664957	0.0119053	-0.0006225	0.0134253
-3.4364124	0.0004743	0.0053063	-0.4055191	-0.1937397	-0.2844801	2.5689324	0.0102561	0.0013630	0.0128764
-3.3364559	0.0002068	0.0049903	-0.4011335	-0.1932250	-0.2841403	2.5699542	0.0005008	0.0012483	0.0132550
-3.2361772	0.0009347	0.0042083	-0.4010630	-0.1923754	-0.2819309	2.5689975	-0.0163983	0.0005402	0.0066117
-3.1364234	0.0026653	0.0030974	-0.4025867	-0.1907689	-0.2790711	2.5666154	-0.0284756	-0.0006589	-0.0040020
-3.0364564	0.0049907	0.0018688	-0.4022468	-0.1885483	-0.2749332	2.5646122	-0.0311144	-0.0014471	-0.0155069
-2.9364175	0.0070690	0.0011908	-0.4040044	-0.1864237	-0.2689468	2.5643475	-0.0216491	-0.0035677	-0.0222071
-2.8362243	0.0084686	0.0014197	-0.4075102	-0.1851468	-0.2624994	2.5664248	-0.0126537	-0.0077478	-0.0211449
-2.7364890	0.0097771	0.0022533	-0.4104120	-0.1852067	-0.2584455	2.5697027	-0.0084557	-0.0135544	-0.0138254
-2.6364324	0.0114114	0.0034333	-0.4145247	-0.1866588	-0.2583544	2.5727556	-0.0126538	-0.0187812	-0.0007928
-2.5364378	0.0145307	0.0038681	-0.4093168	-0.1883575	-0.2606139	2.5743330	-0.0190188	-0.0238893	0.0197817
-2.4362140	0.0170184	0.0046253	-0.4152689	-0.1915131	-0.2631460	2.5741476	-0.0221886	-0.0244695	0.0209248
-2.3363912	0.0205806	0.0044411	-0.4074469	-0.1933169	-0.2642684	2.5729987	-0.0194243	-0.0242191	0.0249790
-2.2364385	0.0236852	0.0050321	-0.4082963	-0.1940393	-0.2647864	2.5719808	-0.0137035	-0.0210518	0.0161946
-2.1363456	0.0254729	0.0057484	-0.4081868	-0.1939233	-0.2654345	2.5724655	-0.0064663	-0.0191951	0.0070791
-2.0364549	0.0269364	0.0066858	-0.4019833	-0.1931590	-0.2658049	2.5741800	0.0027379	-0.0184020	-0.0014353
-1.9364163	0.0273850	0.0090763	-0.4052343	-0.1921673	-0.2653910	2.5767995	0.0081508	-0.0176247	-0.0172634
-1.8364186	0.0275567	0.0111637	-0.4054865	-0.1903393	-0.2638722	2.5784096	0.0075619	-0.0180193	-0.0250664
-1.7363425	0.0281033	0.0132294	-0.4019189	-0.1889425	-0.2619415	2.5795430	0.0026757	-0.0196445	-0.0241486
-1.6364042	0.0290967	0.0158477	-0.4062563	-0.1889838	-0.2604724	2.5803808	-0.0051073	-0.0217979	-0.0202634
-1.5362678	0.0306663	0.0176806	-0.4084783	-0.1910890	-0.2606245	2.5814653	-0.0111198	-0.0240547	-0.0122943
-1.4364132	0.0331086	0.0193460	-0.4106698	-0.1942068	-0.2630827	2.5826545	-0.0178651	-0.0247884	-0.0072107
-1.3364705	0.0364188	0.0200639	-0.4072759	-0.1965016	-0.2682988	2.5833355	-0.0247677	-0.0239306	-0.0036817
-1.2364803	0.0394833	0.0208662	-0.4116630	-0.1968144	-0.2754310	2.5833798	-0.0305246	-0.0191412	-0.0129157
-1.1364319	0.0429855	0.0205342	-0.4048740	-0.1949534	-0.2812736	2.5833118	-0.0277889	-0.0164083	-0.0110442
-1.0364800	0.0457107	0.0211124	-0.4082963	-0.1922979	-0.2820419	2.5838478	-0.0209498	-0.0148169	-0.0151272
-0.9364567	0.0476680	0.0219473	-0.4106897	-0.1900478	-0.2762369	2.5849592	-0.0132677	-0.0153098	-0.0153586
-0.8363863	0.0494204	0.0225308	-0.4056914	-0.1889471	-0.2652830	2.5862053	-0.0084379	-0.0160191	-0.0102043
-0.7364196	0.0510196	0.0235205	-0.4052501	-0.1889810	-0.2525324	2.5870251	-0.0091804	-0.0161047	-0.0087407
-0.6364216	0.0525854	0.0245909	-0.4074130	-0.1897761	-0.2421712	2.5872680	-0.0133449	-0.0156795	-0.0048071
-0.5363574	0.0547914	0.0251231	-0.4083945	-0.1906978	-0.2387966	2.5871905	-0.0203073	-0.0150258	0.0013890
-0.4364275	0.0577594	0.0250001	-0.4082918	-0.1907360	-0.2445135	2.5870445	-0.0290432	-0.0150288	0.0054985
-0.3363305	0.0612963	0.0245278	-0.4083173	-0.1894729	-0.2579208	2.5872834	-0.0333051	-0.0163050	0.0048370
-0.2364631	0.0646907	0.0243201	-0.4093489	-0.1879337	-0.2742788	2.5886426	-0.0298399	-0.0181057	0.0050256
-0.1364572	0.0680960	0.0242174	-0.4072289	-0.1874251	-0.2878987	2.5911633	-0.0219935	-0.0216116	0.0099179
-0.0364250	0.0716705	0.0249752	-0.4078860	-0.1889557	-0.2945879	2.5943775	-0.0173386	-0.0235857	0.0097147
0.0635640	0.0745612	0.0255523	-0.4052343	-0.1907263	-0.2933724	2.5958709	-0.0208189	-0.0240822	0.0082623
0.1636114	0.0772658	0.0259129	-0.4021795	-0.1918992	-0.2844831	2.5962932	-0.0270929	-0.0229656	0.0021857
0.2636733	0.0809457	0.0263131	-0.4037450	-0.1918822	-0.2730266	2.5959745	-0.0341305	-0.0196090	-0.0125893
0.3635794	0.0850983	0.0263525	-0.4021739	-0.1918454	-0.2619846	2.5963534	-0.0349362	-0.0182372	-0.0222166
0.4635443	0.0880966	0.0269836	-0.4066388	-0.1892370	-0.2493546	2.5972736	-0.0345544	-0.0187919	-0.0274811
0.5635717	0.0917468	0.0277224	-0.4115815	-0.1878620	-0.2442804	2.5985956	-0.0386955	-0.0194526	-0.0251297
0.6635456	0.0965805	0.0279378	-0.4144188	-0.1869405	-0.2454546	2.5993120	-0.0451901	-0.0230843	-0.0122558
0.7635648	0.1009477	0.0282206	-0.4165844	-0.1870892	-0.2527399	2.5993967	-0.0452675	-0.0290985	-0.0014773
0.8635220	0.1067080	0.0280975	-0.4121611	-0.1881343	-0.2636815	2.6003909	-0.0359711	-0.0377419	0.0102105
0.9635195	0.1121125	0.0293933	-0.4093168	-0.1898043	-0.2737660	2.6027301	-0.0258402	-0.0442379	0.0153234
1.0635448	0.1164238	0.0312437	-0.4070222	-0.1928535	-0.2824026	2.6058185	-0.0231752	-0.0467565	0.0124019
1.1635287	0.1212326	0.0339216	-0.4112828	-0.1953275	-0.2876863	2.6093862	-0.0255580	-0.0447259	-0.0023879
1.2635428	0.1256479	0.0364073	-0.4082963	-0.1966343	-0.2898659	2.6126964	-0.0286967	-0.0410392	-0.0148804
1.3637112	0.1293011	0.0389831	-0.4026012	-0.1962187	-0.2887861	2.6156087	-0.0276606	-0.0427562	-0.0233035
1.4637276	0.1338624	0.0424494	-0.4064514	-0.1945971	-0.2890814	2.6183112	-0.0263699	-0.0524268	-0.0295977
1.5635415	0.1386735	0.0468699	-0.4001417	-0.1924439	-0.2911370	2.6203222	-0.0266589	-0.0681907	-0.0214624
1.6635622	0.1449605	0.0523374	-0.4056157	-0.1899375	-0.2971511	2.6209955	-0.0336211	-0.0841367	-0.0242514
1.7636877	0.1525775	0.0589094	-0.4060955	-0.1869072	-0.3057526	2.6203251	-0.0407386	-0.0986442	-0.0241684
1.8637038	0.1607683	0.0664396	-0.4022020	-0.1839938	-0.3117068	2.6193593	-0.0421183	-0.1146597	-0.0185942
1.9636564	0.1707402	0.0750975	-0.4074602	-0.1822121	-0.3105290	2.6193292	-0.0335748	-0.1314840	-0.0193344
2.0635676	0.1804833	0.0861076	-0.4080108	-0.1823615	-0.3003158	2.6206714	-0.0186298	-0.1490359	-0.0114301
2.1635855	0.1900290	0.0986868	-0.4071549	-0.1843735	-0.2833182	2.6227315	-0.0074027	-0.1614335	-0.0028846
2.2635633	0.1994099	0.1122498	-0.4052913	-0.1875901	-0.2636820	2.6246769	-0.0065836	-0.1651057	0.0020816
2.3635648	0.2085010	0.1251172	-0.4036629	-0.1910880	-0.2461707	2.6258545	-0.0130107	-0.1641921	0.0019695
2.4635436	0.2172082	0.1391110	-0.4060580	-0.1941814	-0.2336779	2.6265084	-0.0217303	-0.1590916	-0.0033193
2.5636800	0.2271947	0.1505590	-0.4037470	-0.1964076	-0.2327148	2.6275890	-0.0254618	-0.1530597	-0.0095387
2.6635702	0.2386870	0.1646340	-0.4031943	-0.1961808	-0.2409965	2.6298904	-0.0260918	-0.1506678	-0.0169535
2.7635643	0.2497258	0.1732513	-0.3959758	-0.1972162	-0.2626719	2.6321300	-0.0283984	-0.1553628	-0.0169116
2.8635443	0.2587703	0.1862539	-0.4024081	-0.1953978	-0.2885504	2.6344869	-0.0331315	-0.1640928	-0.0319064
2.9637832	0.2715712	0.2019543	-0.4011543	-0.1912976	-0.3117460	2.6361116	-0.0356044	-0.1774922	-0.0431061
3.0639309	0.2814066	0.2153112	-0.4015106	-0.1896708	-0.3358448	2.6365941	-0.0353913	-0.1851436	-0.0497941
3.1635628	0.2931990	0.2314474	-0.4031892	-0.1880064	-0.3473007	2.6372520	-0.0353972	-0.1943609	-0.0505517
3.2637212	0.3040492	0.2501774	-0.4011543	-0.1884727	-0.3465509	2.6381178	-0.0321820	-0.2043363	-0.0441491
3.3635333	0.3171934	0.2651543	-0.4054505	-0.1896610	-0.3323565	2.6390288	-0.0274756	-0.2119948	-0.0448808
3.4636078	0.3266538	0.2849254	-0.3993764	-0.1913779	-0.3109440	2.6401505	-0.0183778	-0.2178313	-0.0424528
3.5636109	0.3398689	0.3046120	-0.4031943	-0.1932304	-0.2899050	2.6414544	-0.0131567	-0.2199058	-0.0496617
3.6635868	0.3505116	0.3230305	-0.4065214	-0.1921596	-0.2707446	2.6428395	-0.0115332	-0.2233065	-0.0554579
3.7636193	0.3643395	0.3421870	-0.4017445	-0.1909696	-0.2636417	2.6444125	-0.0165705	-0.2308773	-0.0547649
3.8635732	0.3800910	0.3614245	-0.3970719	-0.1895334	-0.2677346	2.6455438	-0.0273015	-0.2413592	-0.0532654
3.9635412	0.3921586	0.3829805	-0.4046196	-0.1887880	-0.2797906	2.6456746	-0.0397746	-0.2511303	-0.0570298
4.0635579	0.4089632	0.4039520	-0.4037927	-0.1888218	-0.2928320	2.6445622	-0.0457839	-0.2638570	-0.0481629
4.1635428	0.4261449	0.4258589	-0.4032006	-0.1893281	-0.3017306	2.6426420	-0.0445114	-0.2737736	-0.0424722
4.2637079	0.4420067	0.4474001	-0.3990067	-0.1900081	-0.3046639	2.6408471	-0.0343919	-0.2782344	-0.0366991
4.3635681	0.4596937	0.4710386	-0.4071483	-0.1910557	-0.3024730	2.6402162	-0.0249543	-0.2786288	-0.0419240
4.4635830	0.4751441	0.4949058	-0.4041776	-0.1924646	-0.2991704	2.6417692	-0.0154926	-0.2774232	-0.0403985
4.5637514	0.4893308	0.5179894	-0.4072083	-0.1938385	-0.2958734	2.6455587	-0.0075817	-0.2737294	-0.0494591
4.6636951	0.5030480	0.5425747	-0.4074737	-0.1949507	-0.2914921	2.6505005	-0.0008584	-0.2693733	-0.0585714
4.7635336	0.5165819	0.5669001	-0.4001498	-0.1960206	-0.2857737	2.6550983	0.0028842	-0.2674443	-0.0572673
4.8635661	0.5287540	0.5903942	-0.4013175	-0.1976039	-0.2832165	2.6580819	-0.0043244	-0.2683047	-0.0595490
4.9635369	0.5446081	0.6191213	-0.4042147	-0.1979978	-0.2860688	2.6586508	-0.0187428	-0.2682936	-0.0665349
5.0636273	0.5583475	0.6386052	-0.3972234	-0.1984621	-0.2974386	2.6577264	-0.0257278	-0.2736404	-0.0669009
5.1636216	0.5735389	0.6634868	-0.4024005	-0.1960299	-0.3091232	2.6559044	-0.0268942	-0.2807333	-0.0874764
5.2635343	0.5895730	0.6926321	-0.4031943	-0.1920348	-0.3164622	2.6537540	-0.0201784	-0.2888670	-0.1035530
5.3635433	0.6019903	0.7159056	-0.4067312	-0.1876526	-0.3205681	2.6516947	-0.0122357	-0.2985474	-0.0975975
5.4635809	0.6161981	0.7444867	-0.4084016	-0.1844557	-0.3170320	2.6491288	-0.0046522	-0.3103732	-0.0858673
5.5635187	0.6292018	0.7756888	-0.4011543	-0.1831818	-0.3106318	2.6459529	-0.0018281	-0.3181916	-0.0763488
5.6635397	0.6449120	0.8025505	-0.4105777	-0.1824885	-0.3011795	2.6442112	-0.0058912	-0.3241203	-0.0757300
5.7635597	0.6606801	0.8315691	-0.4075144	-0.1842092	-0.2927853	2.6439260	-0.0003560	-0.3297596	-0.0656857
5.8635320	0.6770398	0.8645026	-0.4103364	-0.1872200	-0.2859623	2.6460050	0.0139303	-0.3295038	-0.0679829
5.9635359	0.6906656	0.8911618	-0.4072631	-0.1909767	-0.2791722	2.6490118	0.0262956	-0.3281720	-0.0703913
6.0635604	0.7056370	0.9212866	-0.4031348	-0.1952978	-0.2766632	2.6519456	0.0289191	-0.3253059	-0.0719363
6.1635464	0.7216532	0.9523481	-0.3991127	-0.1986248	-0.2790585	2.6530940	0.0190138	-0.3233600	-0.0740174
6.2636754	0.7338056	0.9804880	-0.4023888	-0.2009951	-0.2871731	2.6523647	0.0027406	-0.3222248	-0.0786929
6.3635310	0.7519343	1.0099276	-0.3965053	-0.2007499	-0.2974024	2.6507492	-0.0069530	-0.3248554	-0.0756426
6.4635366	0.7681860	1.0400338	-0.3991127	-0.1987416	-0.3055004	2.6492880	-0.0083289	-0.3257176	-0.0880372
6.5635377	0.7832814	1.0685065	-0.4019578	-0.1956206	-0.3111757	2.6482527	-0.0074543	-0.3233846	-0.1031260
6.6637033	0.7991731	1.0989385	-0.4063202	-0.1921325	-0.3132437	2.6467835	-0.0082079	-0.3244635	-0.1059657
6.7635397	0.8147710	1.1297201	-0.4083727	-0.1890359	-0.3126505	2.6443570	-0.0084437	-0.3295702	-0.0969461
6.8635387	0.8291374	1.1589118	-0.4069944	-0.1864040	-0.3108141	2.6409042	-0.0114474	-0.3329276	-0.0926975
6.9635968	0.8435737	1.1888393	-0.3994255	-0.1843964	-0.3093873	2.6368911	-0.0192174	-0.3360288	-0.0836618
7.0636058	0.8623496	1.2189065	-0.4022417	-0.1841373	-0.3082580	2.6333506	-0.0264157	-0.3416446	-0.0690046
7.1635436	0.8797791	1.2465518	-0.3990401	-0.1862869	-0.3066136	2.6316017	-0.0197045	-0.3422378	-0.0542538
7.2635415	0.8986846	1.2765644	-0.4011304	-0.1902165	-0.3037426	2.6318271	-0.0109780	-0.3353247	-0.0612482
7.3637220	0.9160176	1.3059797	-0.4001883	-0.1945245	-0.3004391	2.6333704	-0.0053111	-0.3268843	-0.0702244
7.4636572	0.9323965	1.3336333	-0.3963136	-0.1974849	-0.2970598	2.6350110	-0.0065547	-0.3218502	-0.0723735
7.5635287	0.9511281	1.3676746	-0.4021739	-0.1979685	-0.2956343	2.6365158	-0.0137977	-0.3184299	-0.0905401
7.6635220	0.9658917	1.3917890	-0.4036718	-0.1954917	-0.2976552	2.6368732	-0.0252078	-0.3205615	-0.1043210
7.7637504	0.9838334	1.4191121	-0.4057734	-0.1914750	-0.3030605	2.6359144	-0.0418377	-0.3274960	-0.1010498
7.8636316	1.0072927	1.4518524	-0.4103364	-0.1871690	-0.3084153	2.6323353	-0.0595285	-0.3357539	-0.0857823
7.9636613	1.0240654	1.4745849	-0.4035629	-0.1824364	-0.3151842	2.6273674	-0.0660122	-0.3411922	-0.0711696
8.0635638	1.0476253	1.5028103	-0.4069356	-0.1794083	-0.3172137	2.6209170	-0.0643562	-0.3522571	-0.0568283
8.1637220	1.0729377	1.5339769	-0.4082963	-0.1796448	-0.3145267	2.6152117	-0.0464574	-0.3619285	-0.0443395
8.2637189	1.0927844	1.5603344	-0.4080563	-0.1823039	-0.3056401	2.6135601	-0.0263519	-0.3626574	-0.0404431
8.3635835	1.1125044	1.5897272	-0.4008029	-0.1876001	-0.2913859	2.6147118	-0.0022364	-0.3590148	-0.0290910
8.4635689	1.1291157	1.6250042	-0.4072759	-0.1940800	-0.2739762	2.6179982	0.0142841	-0.3481086	-0.0342613
8.5637381	1.1449198	1.6523317	-0.4036831	-0.1986426	-0.2537194	2.6207964	0.0168752	-0.3339217	-0.0411690
8.6635610	1.1652971	1.6801884	-0.3983547	-0.2014004	-0.2444435	2.6221814	0.0096868	-0.3214641	-0.0543872
8.7635244	1.1817801	1.7092583	-0.3980923	-0.2013083	-0.2482369	2.6219511	-0.0062286	-0.3152783	-0.0701529
8.8637064	1.1928752	1.7374233	-0.4025676	-0.1994471	-0.2664182	2.6212462	-0.0230478	-0.3147127	-0.0790639
8.9635776	1.2188135	1.7621943	-0.3980859	-0.1959350	-0.2927564	2.6211127	-0.0279666	-0.3204076	-0.0815079
9.0637437	1.2360661	1.7910131	-0.4042147	-0.1910592	-0.3185118	2.6219557	-0.0237255	-0.3228546	-0.1016584
9.1635702	1.2507920	1.8203633	-0.4062292	-0.1875901	-0.3374257	2.6227547	-0.0130968	-0.3300588	-0.1046324
9.2635999	1.2606396	1.8533587	-0.4039258	-0.1851883	-0.3416404	2.6228050	-0.0071007	-0.3339429	-0.0965414
9.3635768	1.2737509	1.8841427	-0.4042147	-0.1843793	-0.3336861	2.6204956	-0.0150300	-0.3376537	-0.0851110
9.4636736	1.2913393	1.9141639	-0.4057597	-0.1846467	-0.3192810	2.6165574	-0.0249773	-0.3412546	-0.0780256
9.5636096	1.3114573	1.9436025	-0.4084691	-0.1852891	-0.3060079	2.6126845	-0.0277057	-0.3389713	-0.0779639
9.6635346	1.3264998	1.9714436	-0.4021846	-0.1868795	-0.2949618	2.6109100	-0.0155310	-0.3372318	-0.0656664
9.7635382	1.3446786	2.0006311	-0.4012894	-0.1891133	-0.2838957	2.6116454	0.0055656	-0.3313930	-0.0707759
9.8635584	1.3610238	2.0306534	-0.4014946	-0.1911034	-0.2751212	2.6132103	0.0158617	-0.3267981	-0.0737983
9.9635940	1.3779587	2.0601068	-0.4001396	-0.1921843	-0.2708897	2.6141983	0.0184361	-0.3261806	-0.0699520
10.0635592	1.4029037	2.0830138	-0.3909939	-0.1916865	-0.2753565	2.6140446	0.0094005	-0.3271213	-0.0695831
10.1635348	1.4189474	2.1188498	-0.3960522	-0.1891081	-0.2875749	2.6128041	-0.0114880	-0.3274286	-0.0749680
10.2635354	1.4338046	2.1444054	-0.4003597	-0.1892732	-0.3105260	2.6120162	-0.0226487	-0.3287033	-0.0778536
10.3635318	1.4497836	2.1719977	-0.3966230	-0.1889327	-0.3303603	2.6116679	-0.0258748	-0.3328377	-0.0716333
10.4635395	1.4737558	2.2038472	-0.4001323	-0.1892061	-0.3416164	2.6122103	-0.0197776	-0.3376118	-0.0678176
10.5635400	1.4956497	2.2265372	-0.4043891	-0.1905078	-0.3455622	2.6130039	-0.0138048	-0.3353740	-0.0718633
10.6635738	1.5097503	2.2562559	-0.4034789	-0.1910834	-0.3411032	2.6142369	-0.0050701	-0.3295129	-0.0709446
10.7636137	1.5303634	2.2872588	-0.4062563	-0.1913619	-0.3337283	2.6153081	-0.0035354	-0.3190737	-0.0794520
10.8635359	1.5353755	2.3189682	-0.3972231	-0.1907491	-0.3230131	2.6154114	-0.0013154	-0.3155065	-0.0705221
10.9635195	1.5504325	2.3462081	-0.3975918	-0.1905777	-0.3157264	2.6143933	-0.0037652	-0.3127503	-0.0742278
11.0635620	1.5680732	2.3769951	-0.3980923	-0.1902372	-0.3139159	2.6119519	-0.0095938	-0.3177597	-0.0783360
11.1635645	1.5840665	2.4035600	-0.4025972	-0.1893761	-0.3167266	2.6096545	-0.0089569	-0.3235001	-0.0813897
11.2635551	1.6008733	2.4327147	-0.3984470	-0.1891249	-0.3223629	2.6077013	-0.0042724	-0.3326123	-0.0675559
11.3635604	1.6198819	2.4622262	-0.4031943	-0.1893870	-0.3282479	2.6065724	-0.0006008	-0.3348513	-0.0644819
11.4635387	1.6339367	2.4913869	-0.3990816	-0.1902659	-0.3311393	2.6058104	0.0019045	-0.3293631	-0.0626568
11.5635658	1.6518289	2.5187450	-0.4013471	-0.1906438	-0.3283243	2.6047571	-0.0038862	-0.3291369	-0.0683122
11.6635379	1.6675402	2.5499972	-0.3980923	-0.1906891	-0.3211436	2.6035215	-0.0057099	-0.3297247	-0.0763822
11.7635781	1.6842011	2.5787805	-0.3965610	-0.1900880	-0.3111823	2.6024746	-0.0056614	-0.3274173	-0.0842211
11.8635254	1.7015515	2.6084523	-0.4015124	-0.1895949	-0.3026718	2.6018407	-0.0082920	-0.3278940	-0.0899700
11.9635436	1.7167133	2.6380406	-0.4082963	-0.1890545	-0.2974624	2.6016926	-0.0103068	-0.3279892	-0.0982794
12.0637309	1.7413850	2.6624233	-0.4040803	-0.1887390	-0.2946817	2.6019124	-0.0149728	-0.3329700	-0.0936335
12.1635663	1.7637602	2.6891508	-0.4028536	-0.1887424	-0.2929676	2.6018971	-0.0165249	-0.3310733	-0.0922692
12.2636465	1.7892823	2.7108476	-0.3971426	-0.1889286	-0.2926713	2.6013906	-0.0164296	-0.3276647	-0.0875514
12.3635069	1.8023050	2.7439834	-0.4062110	-0.1891069	-0.2932679	2.6000021	-0.0196352	-0.3267384	-0.0908988
12.4635628	1.8289407	2.7665272	-0.3995417	-0.1887623	-0.2959315	2.5978786	-0.0160921	-0.3253909	-0.0854531
12.5635919	1.8490432	2.7935961	-0.3994249	-0.1876980	-0.3008501	2.5958141	-0.0094755	-0.3216374	-0.0908607
12.6635968	1.8623625	2.8249142	-0.4106472	-0.1862173	-0.3075025	2.5945999	-0.0012968	-0.3217731	-0.1053046
12.7635336	1.8812986	2.8560723	-0.4031943	-0.1844498	-0.3139669	2.5945568	0.0119589	-0.3276931	-0.1017593
12.8635195	1.8913776	2.8812344	-0.3973685	-0.1842103	-0.3217810	2.5952065	0.0148181	-0.3320953	-0.0920449
12.9636378	1.9096219	2.9104962	-0.4029634	-0.1841838	-0.3258871	2.5960896	0.0045874	-0.3353909	-0.0876526
13.0635448	1.9270002	2.9443818	-0.4021739	-0.1847914	-0.3268725	2.5961740	-0.0121813	-0.3350275	-0.0762471
13.1636823	1.9421479	2.9704389	-0.4013439	-0.1860949	-0.3245766	2.5954377	-0.0275174	-0.3316208	-0.0656798
13.2637284	1.9632979	2.9962460	-0.4046185	-0.1877761	-0.3184062	2.5936848	-0.0382782	-0.3319912	-0.0607869
13.3638177	1.9859000	3.0260337	-0.4042147	-0.1901665	-0.3097538	2.5909805	-0.0385485	-0.3305708	-0.0539106
13.4636152	2.0065180	3.0497256	-0.3980007	-0.1918357	-0.2979100	2.5887034	-0.0317487	-0.3227001	-0.0471046
13.5635379	2.0251422	3.0746994	-0.3978941	-0.1932665	-0.2889515	2.5864016	-0.0244995	-0.3147801	-0.0490114
13.6635720	2.0384867	3.1048960	-0.4031943	-0.1937959	-0.2858848	2.5848460	-0.0171205	-0.3088616	-0.0585655
13.7635397	2.0567657	3.1292623	-0.4034152	-0.1932050	-0.2888265	2.5839901	-0.0219277	-0.3111375	-0.0670382
13.8635643	2.0823123	3.1513177	-0.3998998	-0.1917947	-0.2977353	2.5827434	-0.0411741	-0.3176328	-0.0719127
13.9635843	2.1090892	3.1755918	-0.3970719	-0.1892451	-0.3098710	2.5803779	-0.0618172	-0.3214307	-0.0747843
14.0635377	2.1310417	3.2000927	-0.3968738	-0.1863847	-0.3210669	2.5773237	-0.0765845	-0.3255256	-0.0740267
14.1635620	2.1583239	3.2235018	-0.4082047	-0.1838116	-0.3261292	2.5742587	-0.0854627	-0.3246871	-0.0766348
14.2635699	2.1758961	3.2492535	-0.4052343	-0.1825589	-0.3240472	2.5721246	-0.0829523	-0.3216239	-0.0673245
14.3635850	2.2000660	3.2729814	-0.4080274	-0.1826719	-0.3152716	2.5707833	-0.0837556	-0.3251809	-0.0615640
14.4636652	2.2188456	3.2955700	-0.4030177	-0.1836597	-0.3020375	2.5695772	-0.0828567	-0.3282169	-0.0514253
14.5635763	2.2446729	3.3173280	-0.3991247	-0.1849189	-0.2879379	2.5680882	-0.0863400	-0.3363268	-0.0422766
14.6635717	2.2624751	3.3483000	-0.4063845	-0.1859633	-0.2775196	2.5659420	-0.0906529	-0.3333566	-0.0406256
14.7635707	2.2900607	3.3688726	-0.4053316	-0.1868092	-0.2733250	2.5629807	-0.1021819	-0.3356153	-0.0358210
14.8637281	2.3182783	3.3908461	-0.4052342	-0.1876355	-0.2742839	2.5592736	-0.1118093	-0.3299463	-0.0305444
14.9635397	2.3586281	3.4043451	-0.3990122	-0.1882221	-0.2787121	2.5549907	-0.1196445	-0.3298654	-0.0255959
15.0635684	2.3756654	3.4311715	-0.4055517	-0.1882251	-0.2840011	2.5507966	-0.1213714	-0.3285504	-0.0343357
15.1635402	2.4138152	3.4460228	-0.3991656	-0.1874379	-0.2879450	2.5476150	-0.1182520	-0.3262216	-0.0356947
15.2635727	2.4468676	3.4637005	-0.3944542	-0.1865777	-0.2902541	2.5459759	-0.1153091	-0.3296459	-0.0427564
15.3635456	2.4801799	3.4865773	-0.3940106	-0.1860392	-0.2914678	2.5457593	-0.1096443	-0.3267933	-0.0511845
15.4635896	2.5008968	3.5075432	-0.4034665	-0.1865667	-0.2920511	2.5458279	-0.1160009	-0.3311178	-0.0613797
15.5636288	2.5306564	3.5280199	-0.4032849	-0.1877450	-0.2920219	2.5451797	-0.1208945	-0.3296212	-0.0584791
15.6635346	2.5623965	3.5516557	-0.4082963	-0.1888203	-0.2918685	2.5425759	-0.1300955	-0.3295034	-0.0535024
15.7635287	2.5910509	3.5673533	-0.4012856	-0.1896142	-0.2914409	2.5392023	-0.1345382	-0.3298152	-0.0337916
15.8636147	2.6210322	3.5869733	-0.4033622	-0.1900723	-0.2923423	2.5358868	-0.1353896	-0.3266612	-0.0249633
15.9635684	2.6551060	3.6074535	-0.4011543	-0.1902879	-0.2941983	2.5342350	-0.1362571	-0.3275112	-0.0235917
