# Time	Input
-9.9694950	0.0000000
-9.9686077	0.0000000
-9.8999063	0.0000000
-9.7998316	0.0000000
-9.6999539	0.0000000
-9.5998339	0.0000000
-9.4998267	0.0000000
-9.4000881	0.0000000
-9.2999363	0.0000000
-9.2000325	0.0000000
-9.0999808	0.0000000
-8.9999969	0.0000000
-8.8999813	0.0000000
-8.7999311	0.0000000
-8.6998697	0.0000000
-8.5999565	0.0000000
-8.4999808	0.0000000
-8.3998377	0.0000000
-8.2998904	0.0000000
-8.1999491	0.0000000
-8.0999432	0.0000000
-7.9999987	0.0000000
-7.9000220	0.0000000
-7.7997368	0.0000000
-7.7000074	0.0000000
-7.5998945	0.0000000
-7.4999483	0.0000000
-7.4000876	0.0000000
-7.2999921	0.0000000
-7.1999068	0.0000000
-7.0999826	0.0000000
-6.9998723	0.0000000
-6.8998310	0.0000000
-6.8000000	0.0000000
-6.7000177	0.0000000
-6.6000699	0.0000000
-6.5001119	0.0000000
-6.4000256	0.0000000
-6.2999670	0.0000000
-6.1998753	0.0000000
-6.0999698	0.0000000
-6.0000223	0.0000000
-5.8999498	0.0000000
-5.8001329	0.0000000
-5.6999173	0.0000000
-5.6000701	0.0000000
-5.4999611	0.0000000
-5.3999785	0.0000000
-5.3001372	0.0000000
-5.2001713	0.0000000
-5.0998385	0.0000000
-4.9998735	0.0000000
-4.8999570	0.0000000
-4.7997962	0.0000000
-4.7000187	0.0000000
-4.6000481	0.0000000
-4.4999549	0.0000000
-4.3998400	0.0000000
-4.3000607	0.0000000
-4.1999496	0.0000000
-4.0999736	0.0000000
-3.9998897	0.0000000
-3.8999711	0.0000000
-3.8000630	0.0000000
-3.7000207	0.0000000
-3.6000108	0.0000000
-3.5000164	0.0000000
-3.3999247	0.0000000
-3.2999657	0.0000000
-3.1999288	0.0000000
-3.0999414	0.0000000
-2.9999903	0.0000000
-2.8998060	0.0000000
-2.7998743	0.0000000
-2.6999785	0.0000000
-2.5999626	0.0000000
-2.4999596	0.0000000
-2.3998958	0.0000000
-2.2998917	0.0000000
-2.2000420	0.0000000
-2.1000353	0.0000000
-2.0001180	0.0000000
-1.8999675	0.0000000
-1.8000348	0.0000000
-1.6999959	0.0000000
-1.6000525	0.0000000
-1.5000141	0.0000000
-1.3999772	0.0000000
-1.2999828	0.0000000
-1.1999450	0.0000000
-1.0999913	0.0000000
-0.9998403	0.0000000
-0.8999875	0.0000000
-0.7999649	0.0000000
-0.6999836	0.0000000
-0.5999877	0.0000000
-0.4999933	0.0000000
-0.4000143	0.0000000
-0.2998385	0.0000000
-0.1998538	0.0000000
-0.0999411	0.0000000
0.0002204	-422.3752747
0.0999053	-99.1206818
0.2001009	-35.8814468
0.3000115	-22.3934746
0.3999498	-18.2015285
0.4999731	-14.8612862
0.6001019	-12.5463200
0.7000678	-11.1749601
0.7999977	-9.3321886
0.9000138	-7.3133488
1.0000305	-6.8127995
1.1000338	-6.2503877
1.2000840	-6.0671525
1.3000182	-6.5574827
1.4001162	-6.8304019
1.5002371	-7.1912246
1.6001098	-7.5907645
1.7000289	-7.5149102
1.8001372	-7.2552829
1.9000847	-6.6872711
1.9999534	-6.1054230
2.1000973	-5.4960957
2.2001142	-4.7944269
2.2999859	-4.4056764
2.4000031	-4.4358091
2.5000182	-4.7624354
2.6004518	-5.2396750
2.7000584	-5.8231039
2.8001001	-6.2846622
2.8999391	-6.5604811
3.0000082	-6.5843477
3.1000735	-6.2138033
3.1999962	-5.3738127
3.2999181	-4.6968026
3.4000763	-3.3449297
3.5002086	-2.2295635
3.5999739	-2.0485044
3.7001034	-1.8002890
3.7999954	-1.7201687
3.9000330	-2.1743834
4.0000868	-2.1069374
4.1000717	-2.3724618
4.1999852	-2.4520257
4.3000901	-2.4287939
4.4000225	-2.2252655
4.4999859	-1.9986526
4.5999795	-1.5710750
4.7001431	-1.0510365
4.7999831	-0.7770340
4.8999652	-0.7001098
4.9999229	-0.6408674
5.1000179	-0.4942430
5.2001098	-0.4860116
5.3000177	-0.4859022
5.4000543	-0.4040301
5.5002519	-0.0787085
5.6000658	0.1993122
5.7000010	0.4785226
5.8000776	1.0706774
5.8999593	1.2919544
6.0001702	1.9600961
6.0999962	2.3251879
6.2000305	2.3360426
6.3000061	2.8736963
6.4000579	3.1742373
6.5001016	3.6030030
6.6000241	3.7540705
6.7000018	3.9038551
6.8000164	4.0948782
6.9003837	4.0545406
6.9999324	4.2202678
7.0999887	4.5928664
7.2000809	4.9853354
7.3001787	5.3839250
7.4000648	5.7337527
7.5001498	6.1630883
7.6001590	6.4997239
7.7000097	6.9068236
7.8000589	7.3237085
7.9000195	7.7826166
8.0000481	8.2500153
8.1003077	8.7954311
8.2000755	8.9034948
8.3001216	9.0646973
8.3999764	8.9539881
8.5000253	8.8873739
8.6001587	9.1790266
8.7000381	9.2917566
8.8000095	9.4377985
8.9000824	9.7224054
9.0000993	10.2044964
9.0999060	10.6530762
9.2000512	11.0143080
12.8000676	11.3417883
12.8003820	10.4260712
12.8003876	10.3570108
12.8003953	10.4572811
12.8004006	10.5914183
12.8004052	10.7323294
12.8004086	10.8745947
12.8004119	11.0171309
12.8004155	11.1597204
12.8004227	11.3023224
12.8004262	0.0000000
12.8004303	0.0000000
12.8004342	0.0000000
12.8004390	0.0000000
12.8004426	0.0000000
12.8004460	0.0000000
12.8004493	0.0000000
12.8004526	0.0000000
12.8004559	0.0000000
12.8004593	0.0000000
12.8004626	0.0000000
12.8004667	0.0000000
12.8004705	0.0000000
12.8004741	0.0000000
12.8004780	0.0000000
12.8004820	0.0000000
12.8004856	0.0000000
12.8004936	0.0000000
12.8005120	0.0000000
12.8005153	0.0000000
12.8005184	0.0000000
12.8005235	0.0000000
12.8005281	0.0000000
12.8005327	0.0000000
12.8005435	0.0000000
12.8005471	62.3226395
12.9000069	40.9779701
12.9999726	37.8084068
13.0999790	38.3717842
13.2004186	37.0428734
13.3001075	28.4048557
13.3999652	18.8546009
13.5003684	10.2976942
13.6000873	7.4252658
13.7007839	8.6082954
13.8001695	11.2717104
13.9000479	14.1209297
14.0000128	15.5604067
14.1000425	16.0818787
14.2000581	15.5253458
14.2999864	15.0745630
14.4001178	15.1357899
14.5000202	15.4858618
14.5999918	15.8079348
14.7000133	15.8729601
14.7999803	16.3406353
14.8999506	16.8542957
15.0000200	17.4004478
15.0999217	17.3548393
15.2001262	17.2382622
15.2999936	17.1827049
15.4000079	17.2271309
15.5003325	17.1253376
15.6000425	17.1412392
15.6999693	17.3761406
15.8003515	17.9850235
15.8999828	18.2789173
16.0001446	18.7555408
16.1001060	19.0471115
16.1999724	19.0217705
16.3001738	18.7584820
16.4001472	18.4454556
16.4999662	19.0613079
16.6001239	19.3827705
16.6999739	19.7041683
16.8000136	20.2847500
16.9000010	20.1884499
17.0000596	20.0923824
17.1000236	20.0823174
17.2000428	19.8172188
17.3004255	20.1546650
17.3998984	20.3676739
17.4999278	20.4476757
17.6000128	20.6728554
17.7000259	20.9011459
17.8001728	20.9843750
17.9000238	20.9424458
17.9999035	21.0068665
18.0999739	21.5634651
18.1999939	21.8133640
18.2999217	22.4000664
18.4000865	22.7349052
18.5000451	22.6848869
18.6000320	22.3646660
18.7001188	21.8855991
18.8001121	21.3793755
18.9000246	21.5725937
19.0001677	21.8820820
19.1000607	22.6108932
19.2000794	22.8121281
19.2999780	22.7425499
19.3999852	23.1140537
19.4999416	23.5414600
19.5999716	23.8209438
19.7000287	23.8502083
19.8001244	23.8589401
19.9001126	23.6130753
19.9384125	0.0000000
