# Time	Velocity	Pitch	Yaw
-4.6777254	0.0000000	0.0000000	0.0000000
-4.5777249	0.0000000	0.0000000	0.0000000
-4.4777390	0.0000000	0.0000000	0.0000000
-4.3777428	0.0000000	0.0000000	0.0000000
-4.2775142	0.0000000	0.0000000	0.0000000
-4.1775388	0.0000000	0.0000000	0.0000000
-4.0777344	0.0000000	0.0000000	0.0000000
-3.9777620	0.0000000	0.0000000	0.0000000
-3.8777759	0.0000000	0.0000000	0.0000000
-3.7777533	0.0000000	0.0000000	0.0000000
-3.6777111	0.0000000	0.0000000	0.0000000
-3.5777272	0.0000000	0.0000000	0.0000000
-3.4777562	0.0000000	0.0000000	0.0000000
-3.3777137	0.0000000	0.0000000	0.0000000
-3.2777644	0.0000000	0.0000000	0.0000000
-3.1777050	0.0000000	0.0000000	0.0000000
-3.0777114	0.0000000	0.0000000	0.0000000
-2.9776714	0.0000000	0.0000000	0.0000000
-2.8777531	0.0000000	0.0000000	0.0000000
-2.7777503	0.0000000	0.0000000	0.0000000
-2.6777121	0.0000000	0.0000000	0.0000000
-2.5777692	0.0000000	0.0000000	0.0000000
-2.4777431	0.0000000	0.0000000	0.0000000
-2.3777756	0.0000000	0.0000000	0.0000000
-2.2776440	0.0000000	0.0000000	0.0000000
-2.1775977	0.0000000	0.0000000	0.0000000
-2.0777080	0.0000000	0.0000000	0.0000000
-1.9776128	0.0000000	0.0000000	0.0000000
-1.8777357	0.0000000	0.0000000	0.0000000
-1.7774533	0.0000000	0.0000000	0.0000000
-1.6777065	0.0000000	0.0000000	0.0000000
-1.5777193	0.0000000	0.0000000	0.0000000
-1.4777454	0.0000000	0.0000000	0.0000000
-1.3777431	0.0000000	0.0000000	0.0000000
-1.2777964	0.0000000	0.0000000	0.0000000
-1.1777539	0.0000000	0.0000000	0.0000000
-1.0777533	0.0000000	0.0000000	0.0000000
-0.9777208	0.0000000	0.0000000	0.0000000
-0.8777861	0.0000000	0.0000000	0.0000000
-0.7775304	0.0000000	0.0000000	0.0000000
-0.6776643	0.0000000	0.0000000	0.0000000
-0.5776942	0.0000000	0.0000000	0.0000000
-0.4775877	0.0000000	0.0000000	0.0000000
-0.3776891	0.0000000	0.0000000	0.0000000
-0.2776343	0.0000000	0.0000000	0.0000000
-0.1777679	0.0000000	0.0000000	0.0000000
-0.0776696	0.0055077	0.0000000	0.0000000
0.0223268	0.0147635	0.0000000	0.0000000
0.1222912	0.0240421	0.0000000	0.0000000
0.2224018	0.0333463	0.0000000	0.0000000
0.3223460	0.0426343	0.0000000	0.0000000
0.4223365	0.0519386	0.0000000	0.0000000
0.5223196	0.0612390	0.0000000	0.0000000
0.6224266	0.0705332	0.0000000	0.0000000
0.7224192	0.0798156	0.0000000	0.0000000
0.8223895	0.0890751	0.0000000	0.0000000
0.9223631	0.0983210	0.0000000	0.0000000
1.0223378	0.1075417	0.0000000	0.0000000
1.1222889	0.1167407	0.0000000	0.0000000
1.2223462	0.1258993	0.0000000	0.0000000
1.3223222	0.1350256	0.0000000	0.0000000
1.4225631	0.1441244	0.0000000	0.0000000
1.5223680	0.1531537	0.0000000	0.0000000
1.6222938	0.1621363	0.0000000	0.0000000
1.7226442	0.1710775	0.0000000	0.0000000
1.8223526	0.1799444	0.0000000	0.0000000
1.9223621	0.1887517	0.0000000	0.0000000
2.0223491	0.1974881	0.0000000	0.0000000
2.1223877	0.2061502	0.0000000	0.0000000
2.2223698	0.2147408	0.0000000	0.0000000
2.3223462	0.2232527	0.0000000	0.0000000
2.4225592	0.2316853	0.0000000	0.0000000
2.5224102	0.2400094	0.0000000	0.0000000
2.6223432	0.2482455	0.0000000	0.0000000
2.7223583	0.2563812	0.0000000	0.0000000
2.8223910	0.2644195	0.0000000	0.0000000
2.9223516	0.2723461	0.0000000	0.0000000
3.0223340	0.2801569	0.0000000	0.0000000
3.1223273	0.2878598	0.0000000	0.0000000
3.2223045	0.2954276	0.0000000	0.0000000
3.3223188	0.3028822	0.0000000	0.0000000
3.4230592	0.3102192	0.0000000	0.0000000
3.5223936	0.3173888	0.0000000	0.0000000
3.6224154	0.3244402	0.0000000	0.0000000
3.7224108	0.3313333	0.0000000	0.0000000
3.8223270	0.3380861	0.0000000	0.0000000
3.9223777	0.3446905	0.0000000	0.0000000
4.0223258	0.3511393	0.0000000	0.0000000
4.1224125	0.3574256	0.0000000	0.0000000
4.2223301	0.3635398	0.0000000	0.0000000
4.3223017	0.3694883	0.0000000	0.0000000
4.4223698	0.3752606	0.0000000	0.0000000
4.5223603	0.3808582	0.0000000	0.0000000
4.6223309	0.3862723	0.0000000	0.0000000
4.7222845	0.3914932	0.0000000	0.0000000
4.8223529	0.3965274	0.0000000	0.0000000
4.9223304	0.4013594	0.0000000	0.0000000
5.0223181	0.4059933	0.0000000	0.0000000
5.1223882	0.4104225	0.0000000	0.0000000
5.2226908	0.4146456	0.0000000	0.0000000
5.3222899	0.4186455	0.0000000	0.0000000
5.4222723	0.4224293	0.0000000	0.0000000
5.5222935	0.4259927	0.0000000	0.0000000
5.6223529	0.4293278	0.0000000	0.0000000
5.7222433	0.4324280	0.0000000	0.0000000
5.8223439	0.4352963	0.0000000	0.0000000
5.9223624	0.4379233	0.0000000	0.0000000
6.0222815	0.4403004	0.0000000	0.0000000
6.1223608	0.4424319	0.0000000	0.0000000
6.2223831	0.4443082	0.0000000	0.0000000
6.3223831	0.4459254	0.0000000	0.0000000
6.4226460	0.4472796	0.0000000	0.0000000
6.5224453	0.4483661	0.0000000	0.0000000
6.6225710	0.4491813	0.0000000	0.0000000
6.7224338	0.4497192	0.0000000	0.0000000
6.8224084	0.4499766	0.0000000	0.0000000
6.9223158	0.4500000	0.0000000	0.0000000
7.0223982	0.4500000	0.0000000	0.0000000
7.1223744	0.4500000	0.0000000	0.0000000
7.2224466	0.4500000	0.0000000	0.0000000
7.3225500	0.4500000	0.0000000	0.0000000
7.4223854	0.4500000	0.0000000	0.0000000
7.5223598	0.4500000	0.0000000	0.0000000
7.6222968	0.4500000	0.0000000	0.0000000
7.7223795	0.4500000	0.0000000	0.0000000
7.8223114	0.4500000	0.0000000	0.0000000
7.9223196	0.4500000	0.0000000	0.0000000
8.0223665	0.4500000	0.0000000	0.0000000
8.1223859	0.4500000	0.0000000	0.0000000
8.2223795	0.4500000	0.0000000	0.0000000
8.3226196	0.4500000	0.0000000	0.0000000
8.4223455	0.4500000	0.0000000	0.0000000
8.5224092	0.4500000	0.0000000	0.0000000
8.6223811	0.4500000	0.0000000	0.0000000
8.7224404	0.4500000	0.0000000	0.0000000
8.8223091	0.4500000	0.0000000	0.0000000
8.9223923	0.4500000	0.0000000	0.0000000
9.0223675	0.4500000	0.0000000	0.0000000
9.1223770	0.4500000	0.0000000	0.0000000
9.2223869	0.4500000	0.0000000	0.0000000
9.3223895	0.4500000	0.0000000	0.0000000
9.4223158	0.4500000	0.0000000	0.0000000
9.5222740	0.4500000	0.0000000	0.0000000
9.6223974	0.4500000	0.0000000	0.0000000
9.7223967	0.4500000	0.0000000	0.0000000
9.8223268	0.4500000	0.0000000	0.0000000
9.9223913	0.4500000	0.0001056	0.0000000
10.0223247	0.4500000	0.0007475	0.0000000
10.1223140	0.4500000	0.0019505	0.0000000
10.2223086	0.4500000	0.0036923	0.0000000
10.3223706	0.4500000	0.0059490	0.0000000
10.4225165	0.4500000	0.0086935	0.0000000
10.5224136	0.4500000	0.0119018	0.0000000
10.6223731	0.4500000	0.0155564	0.0000000
10.7225377	0.4500000	0.0196272	0.0000000
10.8223647	0.4500000	0.0240898	0.0000000
10.9223903	0.4500000	0.0289197	0.0000000
11.0223567	0.4500000	0.0341035	0.0000000
11.1223752	0.4500000	0.0396017	0.0000000
11.2225853	0.4500000	0.0454085	0.0000000
11.3222584	0.4500000	0.0514675	0.0000000
11.4223421	0.4500000	0.0577927	0.0000000
11.5225838	0.4500000	0.0643492	0.0000000
11.6223639	0.4500000	0.0710904	0.0000000
11.7223378	0.4500000	0.0780124	0.0000000
11.8223869	0.4500000	0.0850949	0.0000000
11.9223365	0.4500000	0.0923079	0.0000000
12.0223859	0.4500000	0.0996284	0.0000000
12.1223227	0.4500000	0.1070180	0.0000000
12.2223329	0.4500000	0.1144770	0.0000000
12.3224264	0.4500000	0.1219676	0.0000000
12.4226104	0.4500000	0.1294664	0.0000000
12.5224049	0.4500000	0.1369517	0.0000000
12.6223790	0.4500000	0.1443945	0.0000000
12.7224694	0.4500000	0.1517858	0.0000000
12.8222994	0.4500000	0.1590728	0.0000000
12.9224609	0.4500000	0.1662725	0.0000000
13.0223316	0.4500000	0.1733174	0.0000000
13.1222720	0.4500000	0.1802054	0.0000000
13.2223890	0.4500000	0.1869271	0.0000000
13.3223642	0.4500000	0.1934315	0.0000000
13.4223700	0.4500000	0.1997090	0.0000000
13.5223731	0.4500000	0.2057282	0.0000000
13.6222845	0.4500000	0.2114705	0.0000000
13.7223749	0.4500000	0.2169148	0.0000000
13.8223951	0.4500000	0.2220302	0.0000000
13.9224000	0.4500000	0.2267925	0.0000000
14.0223770	0.4500000	0.2311830	0.0000000
14.1223498	0.4500000	0.2351752	0.0000000
14.2223183	0.4500000	0.2387460	0.0000000
14.3223178	0.4500000	0.2418678	0.0000000
14.4223872	0.4500000	0.2445208	0.0000000
14.5224046	0.4500000	0.2466805	0.0000000
14.6223516	0.4500000	0.2483205	0.0000000
14.7223347	0.4500000	0.2494192	0.0000000
14.8223419	0.4500000	0.2499511	0.0000000
14.9222956	0.4500000	0.2500000	0.0000000
15.0224154	0.4500000	0.2500000	0.0000000
15.1223286	0.4500000	0.2500000	0.0000000
15.2223416	0.4500000	0.2500000	0.0000000
15.3224179	0.4500000	0.2500000	0.0000000
15.4223864	0.4500000	0.2500000	0.0000000
15.5225213	0.4500000	0.2500000	0.0000000
15.6224018	0.4500000	0.2500000	0.0000000
15.7222940	0.4500000	0.2500000	0.0000000
15.8223793	0.4500000	0.2500000	0.0000000
15.9226237	0.0000000	0.0000000	0.0000000
