# Time	x	y	z	roll	pitch	yaw	vx	vy	vz	
-4.3894943	-0.0000000	-0.0000000	-0.4123780	-0.1864209	-0.2663692	2.6080337	-0.0000000	-0.0000000	0.0000000
-4.2890268	0.0002516	-0.0001035	-0.4163159	-0.1871479	-0.2758146	2.6076481	-0.0046411	-0.0020436	0.0063195
-4.1895089	0.0013168	-0.0005674	-0.4115905	-0.1887670	-0.2792030	2.6068343	-0.0117966	-0.0054403	0.0179417
-4.0896067	0.0028260	-0.0011631	-0.4093168	-0.1902552	-0.2775585	2.6060144	-0.0166892	-0.0083877	0.0245204
-3.9895675	0.0056206	-0.0021785	-0.4084131	-0.1915236	-0.2691819	2.6043698	-0.0200855	-0.0104386	0.0253232
-3.8895772	0.0079890	-0.0029739	-0.4069515	-0.1913859	-0.2578202	2.6024571	-0.0164792	-0.0092104	0.0221266
-3.7895880	0.0095120	-0.0033760	-0.4092639	-0.1908976	-0.2463451	2.6005456	-0.0111523	-0.0097800	0.0210658
-3.6896077	0.0111027	-0.0034082	-0.4082162	-0.1906280	-0.2274285	2.5968835	-0.0014127	-0.0127591	0.0247672
-3.5893988	0.0119794	-0.0027518	-0.4062834	-0.1914332	-0.2141071	2.5934303	0.0056470	-0.0167128	0.0257861
-3.4893832	0.0123969	-0.0016971	-0.4071538	-0.1926529	-0.2080083	2.5909676	0.0095879	-0.0196826	0.0222897
-3.3895544	0.0125770	0.0006338	-0.4081999	-0.1947321	-0.2089981	2.5887399	0.0171247	-0.0227865	0.0152633
-3.2896010	0.0119659	0.0036089	-0.4123712	-0.1961533	-0.2181974	2.5889582	0.0272975	-0.0236786	0.0050757
-3.1895683	0.0110130	0.0062009	-0.4061463	-0.1968523	-0.2291842	2.5903464	0.0353137	-0.0233803	0.0023589
-3.0896067	0.0089098	0.0105564	-0.4066171	-0.1973694	-0.2482647	2.5930776	0.0371078	-0.0217997	0.0002332
-2.9895923	0.0073811	0.0139753	-0.4102882	-0.1974777	-0.2644897	2.5943252	0.0269723	-0.0189054	0.0023373
-2.8894374	0.0069314	0.0161144	-0.4100540	-0.1968519	-0.2779782	2.5933941	0.0066808	-0.0133598	0.0035886
-2.7896059	0.0074556	0.0166122	-0.4092939	-0.1951759	-0.2854591	2.5909784	-0.0098396	-0.0067148	0.0000772
-2.6895718	0.0094303	0.0154952	-0.4073612	-0.1905423	-0.2895057	2.5862795	-0.0303123	0.0048411	-0.0059234
-2.5895245	0.0114046	0.0133556	-0.4058721	-0.1862763	-0.2850155	2.5833884	-0.0311297	0.0106976	-0.0092980
-2.4895483	0.0125856	0.0120258	-0.4122286	-0.1839580	-0.2757423	2.5827426	-0.0240320	0.0110539	-0.0124107
-2.3895434	0.0137086	0.0099488	-0.4063228	-0.1832946	-0.2543255	2.5836807	-0.0119488	0.0063047	-0.0033676
-2.2894840	0.0143127	0.0093332	-0.4105143	-0.1849754	-0.2334806	2.5843622	-0.0108591	0.0019735	-0.0007918
-2.1895465	0.0151450	0.0085852	-0.4082087	-0.1871765	-0.2182314	2.5838955	-0.0115766	-0.0008948	0.0060609
-2.0895839	0.0163921	0.0081423	-0.4112975	-0.1908246	-0.2031901	2.5815723	-0.0139084	-0.0034863	0.0082316
-1.9895309	0.0178701	0.0074751	-0.4100510	-0.1935018	-0.2013004	2.5791903	-0.0131966	-0.0049836	0.0097854
-1.8895173	0.0190802	0.0068686	-0.4078612	-0.1954029	-0.2072042	2.5777496	-0.0115650	-0.0046486	0.0116822
-1.7894336	0.0200135	0.0069365	-0.4143540	-0.1977082	-0.2243416	2.5765308	-0.0117951	-0.0024864	0.0068499
-1.6894723	0.0217185	0.0054164	-0.4049115	-0.1986413	-0.2431796	2.5758148	-0.0131510	-0.0017205	0.0098616
-1.5894958	0.0226846	0.0047599	-0.4051057	-0.1984038	-0.2586232	2.5751036	-0.0139959	0.0000819	0.0048789
-1.4895652	0.0238086	0.0037139	-0.4031980	-0.1968289	-0.2751184	2.5737279	-0.0138136	0.0025333	0.0006644
-1.3894405	0.0248920	0.0028666	-0.4077879	-0.1935436	-0.2861247	2.5716300	-0.0138345	0.0042682	-0.0084951
-1.2895588	0.0256037	0.0020192	-0.4082894	-0.1905533	-0.2857618	2.5698644	-0.0136907	0.0046486	-0.0112042
-1.1896120	0.0259709	0.0012847	-0.4063172	-0.1887427	-0.2793493	2.5686579	-0.0120535	0.0055669	-0.0104385
-1.0895969	0.0262865	0.0007531	-0.4100131	-0.1881537	-0.2612301	2.5675051	-0.0050906	0.0058835	-0.0125853
-0.9895739	0.0257599	0.0006188	-0.4111601	-0.1896867	-0.2408500	2.5670107	0.0058956	0.0062072	-0.0105423
-0.8895421	0.0248455	0.0007234	-0.4103633	-0.1918956	-0.2237858	2.5667479	0.0142568	0.0055234	-0.0062890
-0.7894684	0.0228950	0.0017080	-0.4135819	-0.1953093	-0.2036012	2.5656011	0.0128039	0.0043474	-0.0056413
-0.6895826	0.0225182	0.0014183	-0.4113715	-0.1966939	-0.1990890	2.5635206	-0.0017402	0.0044672	-0.0061295
-0.5895898	0.0233702	0.0002909	-0.4084287	-0.1963649	-0.2052726	2.5613987	-0.0154369	0.0056738	-0.0105623
-0.4895053	0.0246975	-0.0012678	-0.4107094	-0.1937412	-0.2282112	2.5584879	-0.0251407	0.0105997	-0.0229031
-0.3894374	0.0260179	-0.0033704	-0.4095144	-0.1906823	-0.2513739	2.5574244	-0.0212360	0.0146786	-0.0298480
-0.2894628	0.0261877	-0.0049777	-0.4056728	-0.1885504	-0.2679150	2.5578271	-0.0138783	0.0158788	-0.0317142
-0.1895706	0.0258288	-0.0059191	-0.4105543	-0.1870135	-0.2829528	2.5592156	-0.0112410	0.0148018	-0.0386741
-0.0896105	0.0252384	-0.0069505	-0.4065489	-0.1872993	-0.2856196	2.5593743	-0.0168279	0.0089550	-0.0347203
0.0104742	0.0253899	-0.0076514	-0.4037030	-0.1880215	-0.2819684	2.5582408	-0.0258579	0.0031715	-0.0290162
0.1104159	0.0275081	-0.0084725	-0.4076178	-0.1889818	-0.2716614	2.5557401	-0.0340531	-0.0022472	-0.0238399
0.2104123	0.0309659	-0.0095970	-0.4105389	-0.1901328	-0.2565196	2.5527515	-0.0376359	-0.0082256	-0.0124105
0.3104141	0.0346669	-0.0108759	-0.4106766	-0.1917242	-0.2437958	2.5513465	-0.0400387	-0.0110817	0.0006551
0.4104364	0.0377834	-0.0116940	-0.4146403	-0.1933948	-0.2348203	2.5507360	-0.0426768	-0.0112233	0.0048186
0.5106043	0.0437377	-0.0151517	-0.4030733	-0.1955868	-0.2261628	2.5496368	-0.0420666	-0.0119144	0.0181319
0.6105521	0.0458917	-0.0148493	-0.4153903	-0.1962087	-0.2246027	2.5482916	-0.0349543	-0.0105455	0.0075958
0.7104614	0.0488627	-0.0161925	-0.4111003	-0.1959055	-0.2253205	2.5467892	-0.0220761	-0.0109682	0.0092961
0.8105777	0.0521653	-0.0173242	-0.4009274	-0.1947788	-0.2309144	2.5446943	0.0012338	-0.0161792	0.0119497
0.9105774	0.0520214	-0.0145214	-0.4047552	-0.1937357	-0.2386836	2.5440024	0.0201071	-0.0258605	0.0018415
1.0104699	0.0517685	-0.0108548	-0.4078579	-0.1926043	-0.2486037	2.5442258	0.0269770	-0.0381218	-0.0046549
1.1104310	0.0528832	-0.0066623	-0.3960522	-0.1907577	-0.2677832	2.5451215	0.0262480	-0.0595149	-0.0013185
1.2103995	0.0567604	0.0014564	-0.3999619	-0.1887577	-0.2969436	2.5457178	0.0047025	-0.0818984	-0.0161384
1.3104343	0.0625002	0.0088322	-0.4019108	-0.1868241	-0.3194933	2.5453586	-0.0195388	-0.0947486	-0.0293740
1.4105590	0.0674878	0.0149262	-0.4002759	-0.1852002	-0.3310192	2.5441652	-0.0367973	-0.0991311	-0.0405642
1.5105935	0.0772481	0.0233177	-0.4046357	-0.1824276	-0.3290541	2.5410543	-0.0521981	-0.1005562	-0.0622066
1.6104312	0.0851250	0.0313701	-0.4072759	-0.1802876	-0.3098497	2.5380841	-0.0511530	-0.1049357	-0.0745047
1.7105257	0.0918915	0.0381761	-0.4097980	-0.1790928	-0.2863179	2.5358138	-0.0424358	-0.1141071	-0.0742216
1.8104179	0.1012112	0.0485664	-0.4006797	-0.1794374	-0.2515666	2.5337207	-0.0230212	-0.1388685	-0.0457063
1.9104492	0.1110493	0.0625786	-0.4144267	-0.1819364	-0.2332459	2.5335761	-0.0125741	-0.1638553	-0.0305578
2.0105247	0.1225437	0.0704551	-0.4039977	-0.1848333	-0.2292847	2.5344119	-0.0088741	-0.1822501	-0.0083823
2.1104218	0.1348414	0.0889210	-0.4068328	-0.1891537	-0.2355011	2.5362627	-0.0128833	-0.1925932	-0.0018125
2.2105892	0.1473361	0.1039786	-0.4060581	-0.1925159	-0.2454840	2.5369915	-0.0220687	-0.1956037	0.0034362
2.3105073	0.1592621	0.1196785	-0.4135964	-0.1957151	-0.2551596	2.5359693	-0.0316236	-0.1930296	-0.0032425
2.4105331	0.1724116	0.1288415	-0.3999696	-0.1980807	-0.2608593	2.5338661	-0.0328519	-0.1920063	0.0010124
2.5106074	0.1876151	0.1450021	-0.4082140	-0.2002083	-0.2655996	2.5289508	-0.0300701	-0.1884165	-0.0192263
2.6103716	0.2009775	0.1591476	-0.4072015	-0.1993907	-0.2683479	2.5244871	-0.0194498	-0.1877587	-0.0319184
2.7104361	0.2112456	0.1711722	-0.4022321	-0.1967813	-0.2712760	2.5216690	-0.0104219	-0.1903600	-0.0387739
2.8106063	0.2252968	0.1899241	-0.3982174	-0.1907155	-0.2817254	2.5203516	-0.0017744	-0.2001730	-0.0512911
2.9104474	0.2381353	0.2078630	-0.4009382	-0.1853326	-0.2962173	2.5219453	-0.0068570	-0.2185519	-0.0646989
3.0104773	0.2499185	0.2232411	-0.4047046	-0.1818503	-0.3086789	2.5239313	-0.0214644	-0.2355893	-0.0768135
3.1104067	0.2682400	0.2464174	-0.4058981	-0.1793671	-0.3210154	2.5259782	-0.0507438	-0.2598014	-0.0858048
3.2104676	0.2837557	0.2675149	-0.4010120	-0.1797651	-0.3206022	2.5250277	-0.0720264	-0.2737229	-0.0779672
3.3104051	0.3024943	0.2831952	-0.4078390	-0.1807667	-0.3129453	2.5223820	-0.0819110	-0.2768992	-0.0835564
3.4107246	0.3263727	0.3064701	-0.4090994	-0.1817031	-0.2910957	2.5165094	-0.0798636	-0.2792316	-0.0831960
3.5103882	0.3482385	0.3266920	-0.4109062	-0.1819486	-0.2706355	2.5131297	-0.0608110	-0.2820796	-0.0696844
3.6104335	0.3653832	0.3434704	-0.4122391	-0.1827060	-0.2581354	2.5128926	-0.0452154	-0.2887281	-0.0526350
3.7104110	0.3850007	0.3659575	-0.4164604	-0.1851624	-0.2514359	2.5153735	-0.0313942	-0.2970651	-0.0312972
3.8106115	0.4101046	0.3920027	-0.4126676	-0.1904988	-0.2572255	2.5193946	-0.0357148	-0.3066875	-0.0055986
3.9103803	0.4320837	0.4142968	-0.4104609	-0.1950866	-0.2682889	2.5211518	-0.0511420	-0.3098231	-0.0036117
4.0104356	0.4499083	0.4320427	-0.4122320	-0.1978342	-0.2769017	2.5208467	-0.0616548	-0.3078352	-0.0142965
4.1104282	0.4781632	0.4561019	-0.4003837	-0.1988348	-0.2838856	2.5178246	-0.0627628	-0.3014635	-0.0298658
4.2103910	0.5009176	0.4774089	-0.4011543	-0.1969452	-0.2866240	2.5145041	-0.0516785	-0.2941746	-0.0531115
4.3104100	0.5180623	0.4952788	-0.4012946	-0.1941737	-0.2885903	2.5122168	-0.0382216	-0.2971207	-0.0687196
4.4104635	0.5417534	0.5233618	-0.3993868	-0.1888884	-0.2910750	2.5104689	-0.0255004	-0.3126175	-0.0822514
4.5104195	0.5633138	0.5495371	-0.4043196	-0.1843502	-0.2942209	2.5103692	-0.0257190	-0.3298311	-0.0956941
4.6104399	0.5809331	0.5714649	-0.4045933	-0.1811995	-0.2973503	2.5104858	-0.0361233	-0.3498953	-0.0950165
4.7105613	0.6096190	0.6039198	-0.4072103	-0.1786272	-0.2988647	2.5098538	-0.0571658	-0.3732836	-0.0897210
4.8103846	0.6367962	0.6321518	-0.4084604	-0.1790150	-0.2941206	2.5077113	-0.0700623	-0.3842833	-0.0815670
4.9103987	0.6659939	0.6602279	-0.4111550	-0.1809096	-0.2837174	2.5038465	-0.0758393	-0.3878726	-0.0731310
5.0104274	0.6896320	0.6824450	-0.4131060	-0.1825275	-0.2726052	2.5000631	-0.0716168	-0.3840014	-0.0670924
5.1104346	0.7221896	0.7155007	-0.4206088	-0.1845037	-0.2571550	2.4950049	-0.0609456	-0.3778434	-0.0631411
5.2105147	0.7531448	0.7396343	-0.4120487	-0.1860835	-0.2492080	2.4930819	-0.0486764	-0.3767704	-0.0454333
5.3104602	0.7754996	0.7612380	-0.4093270	-0.1880861	-0.2475188	2.4936806	-0.0393155	-0.3780894	-0.0330816
5.4104502	0.8069106	0.7930632	-0.4048288	-0.1928809	-0.2498387	2.4969963	-0.0334794	-0.3830089	-0.0229436
5.5106040	0.8333323	0.8218999	-0.4029880	-0.1974250	-0.2556344	2.5002120	-0.0419340	-0.3872642	-0.0347439
5.6104269	0.8580104	0.8432216	-0.3962113	-0.1997218	-0.2633082	2.5016221	-0.0508713	-0.3878796	-0.0508523
5.7104323	0.8900299	0.8761091	-0.3983978	-0.1985834	-0.2775765	2.5008221	-0.0609501	-0.3829652	-0.0874691
5.8104684	0.9184109	0.9050375	-0.3990223	-0.1932625	-0.2891840	2.4977002	-0.0611097	-0.3770425	-0.1127477
5.9104151	0.9405283	0.9282459	-0.4050334	-0.1875890	-0.2972574	2.4942849	-0.0590869	-0.3781682	-0.1224748
6.0104707	0.9697296	0.9637956	-0.4030250	-0.1802969	-0.3069446	2.4893435	-0.0546268	-0.3914524	-0.1132108
6.1104051	1.0017401	0.9937677	-0.4132009	-0.1776277	-0.3106531	2.4865801	-0.0579668	-0.4114305	-0.0960218
6.2106565	1.0293526	1.0252365	-0.4108328	-0.1782747	-0.3096135	2.4849965	-0.0604416	-0.4226134	-0.0727570
6.3104118	1.0548785	1.0497266	-0.4123946	-0.1804402	-0.3042027	2.4844436	-0.0631632	-0.4260596	-0.0638257
6.4105044	1.0898499	1.0846221	-0.4103822	-0.1840741	-0.2902798	2.4842812	-0.0593918	-0.4135675	-0.0592532
6.5104387	1.1216360	1.1137311	-0.4148838	-0.1858600	-0.2784845	2.4842419	-0.0558937	-0.4005818	-0.0668312
6.6105485	1.1451033	1.1363104	-0.4103630	-0.1860295	-0.2716554	2.4838949	-0.0515976	-0.3929675	-0.0649565
6.7104847	1.1789793	1.1686273	-0.4083044	-0.1852472	-0.2669612	2.4827631	-0.0505945	-0.3917650	-0.0587720
6.8104507	1.2093494	1.1967058	-0.4052288	-0.1847977	-0.2674278	2.4818150	-0.0530890	-0.4031800	-0.0557440
6.9104010	1.2346349	1.2190224	-0.4010601	-0.1850557	-0.2719789	2.4811663	-0.0528514	-0.4169111	-0.0509671
7.0103875	1.2694848	1.2546961	-0.4024208	-0.1866098	-0.2847040	2.4804058	-0.0504986	-0.4233575	-0.0477666
7.1104415	1.3004373	1.2858387	-0.4031374	-0.1888880	-0.2947739	2.4797780	-0.0483827	-0.4263751	-0.0526304
7.2103913	1.3240334	1.3112446	-0.3979762	-0.1908185	-0.2984305	2.4791426	-0.0415004	-0.4234628	-0.0569819
7.3104763	1.3566769	1.3484382	-0.3903938	-0.1929873	-0.2966939	2.4777037	-0.0358114	-0.4147345	-0.0599325
7.4104067	1.3881127	1.3769556	-0.4001752	-0.1935944	-0.2913277	2.4759764	-0.0416115	-0.4082222	-0.0750899
7.5105216	1.4117849	1.4000010	-0.4085722	-0.1931590	-0.2862670	2.4744700	-0.0465456	-0.3992593	-0.0881670
7.6103964	1.4458977	1.4350598	-0.3974047	-0.1911652	-0.2789336	2.4721201	-0.0505796	-0.3909155	-0.0910312
7.7104374	1.4733911	1.4646512	-0.4086983	-0.1886879	-0.2754116	2.4705823	-0.0515508	-0.3878841	-0.1080360
7.8104161	1.5033333	1.4935986	-0.4088523	-0.1863302	-0.2761530	2.4702954	-0.0470341	-0.4020839	-0.1083942
7.9104125	1.5267837	1.5187747	-0.4129586	-0.1850738	-0.2790265	2.4709915	-0.0455515	-0.4160406	-0.1008962
8.0104389	1.5634274	1.5532310	-0.4073683	-0.1851421	-0.2866963	2.4724630	-0.0488924	-0.4386111	-0.0754717
8.1104428	1.5968000	1.5862147	-0.4113473	-0.1871613	-0.2939874	2.4730657	-0.0641344	-0.4557998	-0.0637759
8.2104527	1.6236936	1.6110453	-0.4045946	-0.1893930	-0.2989508	2.4727249	-0.0751720	-0.4567916	-0.0462990
8.3105119	1.6673004	1.6443203	-0.4122125	-0.1919505	-0.3015962	2.4712121	-0.0906220	-0.4411093	-0.0449142
8.4103846	1.7010393	1.6742250	-0.4061517	-0.1916886	-0.2978601	2.4698428	-0.0976380	-0.4292151	-0.0534409
8.5104003	1.7287997	1.6969945	-0.4046579	-0.1899284	-0.2922367	2.4688057	-0.1026479	-0.4256060	-0.0645542
8.6104192	1.7689135	1.7295055	-0.4005010	-0.1864731	-0.2836684	2.4673085	-0.1068840	-0.4267333	-0.0748784
8.7104346	1.8047118	1.7577276	-0.4055493	-0.1842301	-0.2760761	2.4656609	-0.1093753	-0.4299103	-0.0815682
8.8104289	1.8347221	1.7790962	-0.4036572	-0.1834731	-0.2715274	2.4640714	-0.1142106	-0.4357095	-0.0801254
8.9104658	1.8797359	1.8092522	-0.4027763	-0.1835541	-0.2710554	2.4617890	-0.1253843	-0.4489219	-0.0840592
9.0104801	1.9191750	1.8373590	-0.4062043	-0.1836828	-0.2781351	2.4605405	-0.1355301	-0.4543328	-0.0941821
9.1104215	1.9582788	1.8674768	-0.4146034	-0.1832544	-0.2895070	2.4600434	-0.1398826	-0.4555742	-0.1093676
9.2104640	1.9958493	1.8899826	-0.4023897	-0.1826417	-0.2968037	2.4596041	-0.1364886	-0.4596906	-0.1053125
9.3104197	2.0371173	1.9194425	-0.4132537	-0.1831851	-0.2942031	2.4585831	-0.1318735	-0.4539230	-0.1051673
9.4103836	2.0741391	1.9481063	-0.4124594	-0.1858888	-0.2832086	2.4568671	-0.1253014	-0.4467092	-0.0880426
9.5104684	2.1046665	1.9709736	-0.4187817	-0.1893380	-0.2725597	2.4551173	-0.1251851	-0.4421868	-0.0798031
9.6103969	2.1522584	1.9997706	-0.4130104	-0.1948506	-0.2607731	2.4525425	-0.1237874	-0.4343362	-0.0616160
9.7103828	2.1940040	2.0242880	-0.4083108	-0.1979200	-0.2576628	2.4511056	-0.1194898	-0.4277310	-0.0568309
9.8104476	2.2265810	2.0439780	-0.4063382	-0.1987413	-0.2600820	2.4506236	-0.1194671	-0.4263724	-0.0617749
9.9103962	2.2687493	2.0741993	-0.4096001	-0.1968336	-0.2680558	2.4503268	-0.1266902	-0.4292629	-0.0808120
10.0104348	2.3110342	2.0991407	-0.4075838	-0.1932649	-0.2771542	2.4498858	-0.1346349	-0.4373345	-0.0901959
10.1104410	2.3434654	2.1199074	-0.4057955	-0.1902314	-0.2853348	2.4493445	-0.1401264	-0.4374296	-0.0851649
10.2104292	2.3887303	2.1496869	-0.4063415	-0.1864579	-0.2958145	2.4484331	-0.1466083	-0.4380214	-0.0776792
10.3105836	2.4268873	2.1756877	-0.4045851	-0.1838782	-0.3020730	2.4479073	-0.1507673	-0.4422695	-0.0733885
10.4105306	2.4522347	2.1982822	-0.3986366	-0.1820585	-0.3042741	2.4473144	-0.1492412	-0.4443910	-0.0686836
10.5104220	2.4907755	2.2227405	-0.4013645	-0.1802004	-0.3033976	2.4458726	-0.1507077	-0.4479123	-0.0664258
10.6103849	2.5425039	2.2527145	-0.4065269	-0.1796343	-0.2966483	2.4425820	-0.1610128	-0.4531866	-0.0551804
10.7106437	2.5750447	2.2720697	-0.4055075	-0.1806460	-0.2900700	2.4395258	-0.1711847	-0.4488466	-0.0431054
10.8104404	2.6204349	2.2957546	-0.4116780	-0.1831905	-0.2823723	2.4353482	-0.1773818	-0.4485571	-0.0344817
10.9104120	2.6706975	2.3216957	-0.4132674	-0.1870905	-0.2764665	2.4312136	-0.1765527	-0.4458409	-0.0236004
11.0104228	2.7154237	2.3412073	-0.4053494	-0.1900496	-0.2740076	2.4291663	-0.1658908	-0.4343170	-0.0110830
11.1106611	2.7481841	2.3586058	-0.4052187	-0.1916352	-0.2722564	2.4281931	-0.1581337	-0.4272346	-0.0151076
11.2104993	2.7938122	2.3835441	-0.4049932	-0.1926022	-0.2682661	2.4269669	-0.1510168	-0.4192728	-0.0253151
11.3104486	2.8289380	2.4070468	-0.4113660	-0.1923018	-0.2666018	2.4253693	-0.1540815	-0.4133755	-0.0410337
11.4104084	2.8655164	2.4215837	-0.4054880	-0.1915849	-0.2682749	2.4232486	-0.1617582	-0.4138708	-0.0438750
11.5105428	2.9142048	2.4443446	-0.4045272	-0.1897914	-0.2773274	2.4191112	-0.1709072	-0.4189440	-0.0484324
11.6105009	2.9540919	2.4671459	-0.4136300	-0.1880188	-0.2897955	2.4155848	-0.1766567	-0.4365030	-0.0601431
11.7103910	2.9955531	2.4890677	-0.4103364	-0.1852926	-0.2974590	2.4125775	-0.1695634	-0.4469505	-0.0538066
11.8104417	3.0349405	2.5114580	-0.4095761	-0.1845570	-0.3040939	2.4101500	-0.1574690	-0.4454646	-0.0436988
11.9103892	3.0796987	2.5326479	-0.4135017	-0.1836923	-0.2984018	2.4079373	-0.1485324	-0.4324451	-0.0320434
12.0104315	3.1208123	2.5526630	-0.4154384	-0.1843148	-0.2916403	2.4051935	-0.1489663	-0.4204164	-0.0250236
12.1106066	3.1513257	2.5696749	-0.4051235	-0.1825272	-0.2801671	2.4016661	-0.1572304	-0.4225595	-0.0202853
12.2104243	3.2001437	2.5942557	-0.4093076	-0.1819067	-0.2725031	2.3951602	-0.1804294	-0.4370316	-0.0310500
12.3104172	3.2459132	2.6129678	-0.4083458	-0.1817536	-0.2734939	2.3896015	-0.2031500	-0.4544484	-0.0345884
12.4105523	3.2840960	2.6285094	-0.4094637	-0.1821069	-0.2772344	2.3858128	-0.2166409	-0.4670310	-0.0370037
12.5104177	3.3429435	2.6458072	-0.4027344	-0.1835955	-0.2819978	2.3823574	-0.2270625	-0.4810455	-0.0342364
12.6104284	3.3938819	2.6644330	-0.4032593	-0.1861802	-0.2817470	2.3814272	-0.2320663	-0.4829008	-0.0301493
12.7104346	3.4342830	2.6798044	-0.4104277	-0.1890049	-0.2774580	2.3809406	-0.2361767	-0.4721286	-0.0272430
12.8103859	3.4956032	2.6971881	-0.3998212	-0.1930144	-0.2676462	2.3791519	-0.2476369	-0.4585272	-0.0135579
12.9104054	3.5464921	2.7116866	-0.4002010	-0.1940075	-0.2604929	2.3756656	-0.2647711	-0.4511125	-0.0237350
13.0104430	3.5818852	2.7247765	-0.4067149	-0.1923689	-0.2579324	2.3717359	-0.2760513	-0.4476472	-0.0430575
13.1104407	3.6432358	2.7389212	-0.4099290	-0.1864764	-0.2618927	2.3654814	-0.2799561	-0.4470549	-0.0604323
13.2103734	3.6964485	2.7510542	-0.4130790	-0.1810136	-0.2697305	2.3618776	-0.2665049	-0.4469662	-0.0619639
13.3104008	3.7382383	2.7588878	-0.4122118	-0.1779508	-0.2755701	2.3606701	-0.2496647	-0.4470865	-0.0513165
13.4103849	3.7878515	2.7734106	-0.4145107	-0.1771159	-0.2793083	2.3607138	-0.2350081	-0.4505414	-0.0318983
13.5106204	3.8450300	2.7914473	-0.4164299	-0.1798401	-0.2772510	2.3613648	-0.2304846	-0.4544387	-0.0131760
13.6104282	3.8816931	2.7996406	-0.4059493	-0.1822934	-0.2728139	2.3610916	-0.2336078	-0.4548519	-0.0028206
13.7105636	3.9320149	2.8164002	-0.4122757	-0.1841031	-0.2674732	2.3593045	-0.2427675	-0.4490664	-0.0156740
13.8105523	3.9915444	2.8292206	-0.4063965	-0.1837582	-0.2689425	2.3560345	-0.2572892	-0.4454934	-0.0194544
13.9104975	4.0409841	2.8426772	-0.4108076	-0.1820871	-0.2760657	2.3533805	-0.2645951	-0.4358029	-0.0148438
14.0103867	4.0820841	2.8500445	-0.4084516	-0.1810610	-0.2843756	2.3517913	-0.2688145	-0.4345713	-0.0014064
14.1105836	4.1409938	2.8614344	-0.4070996	-0.1813650	-0.2960245	2.3495186	-0.2801523	-0.4411039	0.0153369
14.2103834	4.1894800	2.8719804	-0.4015092	-0.1827464	-0.3020588	2.3471916	-0.2864737	-0.4461490	0.0222710
14.3104010	4.2362293	2.8838585	-0.3960522	-0.1844064	-0.3011591	2.3441125	-0.2813017	-0.4378007	0.0182715
14.4104233	4.2964028	2.8829990	-0.4052845	-0.1838868	-0.2875338	2.3407075	-0.2748065	-0.4204239	0.0021752
14.5103775	4.3449431	2.8928050	-0.4035297	-0.1828491	-0.2738518	2.3384489	-0.2695928	-0.4149307	-0.0075581
14.6104353	4.3925877	2.9011742	-0.4042147	-0.1832214	-0.2669722	2.3377418	-0.2689027	-0.4197687	-0.0118109
14.7104568	4.4328672	2.9110163	-0.4073441	-0.1821622	-0.2647931	2.3381507	-0.2691405	-0.4278180	-0.0107611
14.8104358	4.4905843	2.9228152	-0.4081492	-0.1829196	-0.2691350	2.3385036	-0.2696943	-0.4374325	0.0007179
14.9105674	4.5397488	2.9353213	-0.4112779	-0.1833815	-0.2745509	2.3371830	-0.2717222	-0.4396233	0.0104416
15.0104044	4.5824212	2.9411507	-0.4060626	-0.1834925	-0.2782089	2.3349923	-0.2836915	-0.4450999	0.0148273
15.1104399	4.6436200	2.9514289	-0.4103711	-0.1822604	-0.2793853	2.3311729	-0.2989512	-0.4437315	0.0012442
15.2104148	4.6981507	2.9596767	-0.4155660	-0.1809098	-0.2799857	2.3290921	-0.3084926	-0.4478938	-0.0076455
15.3104161	4.7414122	2.9652719	-0.4156237	-0.1800874	-0.2797182	2.3284125	-0.3077838	-0.4409336	-0.0028236
15.4104371	4.8017960	2.9718399	-0.4135462	-0.1799056	-0.2757234	2.3280795	-0.3001406	-0.4165024	0.0105456
15.5104704	4.8538442	2.9786363	-0.4195093	-0.1807333	-0.2684349	2.3267964	-0.3010432	-0.4019228	0.0122416
15.6105626	4.8996162	2.9748335	-0.4080870	-0.1815973	-0.2635077	2.3241355	-0.3120962	-0.4092421	0.0231176
15.7103816	4.9627010	2.9779590	-0.4056198	-0.1826537	-0.2636146	2.3183949	-0.3354173	-0.4385495	0.0204707
15.8103823	5.0180504	2.9841517	-0.4083754	-0.1834187	-0.2717568	2.3134579	-0.3521019	-0.4645488	0.0064904
15.9105083	5.0673119	2.9858542	-0.4044918	-0.1839502	-0.2803257	2.3099988	-0.3537960	-0.4769517	-0.0008224
