# Time	Input
-4.6996470	0.0000000
-4.5996012	0.0000000
-4.4996303	0.0000000
-4.3996562	0.0000000
-4.2996219	0.0000000
-4.1996083	0.0000000
-4.0996355	0.0000000
-3.9992474	0.0000000
-3.8978406	0.0000000
-3.7995643	0.0000000
-3.6995891	0.0000000
-3.5990789	0.0000000
-3.4996132	0.0000000
-3.3996882	0.0000000
-3.2996099	0.0000000
-3.1993011	0.0000000
-3.0995668	0.0000000
-2.9994696	0.0000000
-2.8994760	0.0000000
-2.7996472	0.0000000
-2.6992852	0.0000000
-2.5993098	0.0000000
-2.4996454	0.0000000
-2.3997468	0.0000000
-2.2996992	0.0000000
-2.1996785	0.0000000
-2.0996813	0.0000000
-1.9996500	0.0000000
-1.8996995	0.0000000
-1.7996490	0.0000000
-1.6997348	0.0000000
-1.5996006	0.0000000
-1.4997414	0.0000000
-1.3996854	0.0000000
-1.2996690	0.0000000
-1.1993700	0.0000000
-1.0997299	0.0000000
-0.9997043	0.0000000
-0.8997299	0.0000000
-0.7996426	0.0000000
-0.6996815	0.0000000
-0.5996431	0.0000000
-0.4996490	0.0000000
-0.3996797	0.0000000
-0.2994276	0.0000000
-0.1996442	0.0000000
-0.0996726	0.0000000
0.0002493	35.0000000
0.1003935	35.0000000
0.2003333	32.5261879
0.3002637	20.5660381
0.4002854	20.9438858
0.5003302	22.8625469
0.6002744	23.3277206
0.7003983	22.0176487
0.8006664	20.9325352
0.9003853	17.1824131
1.0002435	13.4289303
1.1007547	13.7064590
1.2002168	14.9876623
1.3006249	15.4285135
1.4003553	15.4350100
1.5003648	17.3512535
1.6003694	18.3693752
1.7006456	18.2207527
1.8003382	18.9660664
1.9004078	17.5330963
2.0004086	13.5115528
2.1003556	13.8074312
2.2004749	12.2660866
2.3003382	11.3940573
2.4003448	13.3410311
2.5002545	13.3405838
2.6003996	11.1478529
2.7005176	11.1382484
2.8005614	9.4490471
2.9003297	7.9757991
3.0003149	10.0634537
3.1004165	9.7443838
3.2005146	8.4772568
3.3006615	9.2720156
3.4003164	6.8340502
3.5003858	8.4310637
3.6002158	8.0436945
3.7002711	10.7213554
3.8003533	12.8532085
3.9007265	11.7293005
4.0004362	10.8040075
4.1003325	8.7101669
4.2002368	4.2458291
4.3003223	5.1760559
4.4005791	5.8643069
4.5003720	5.1197419
4.6003712	5.3552227
4.7004160	4.6324148
4.8005916	3.8771679
4.9004544	6.1326685
5.0004052	7.7946768
5.1003648	7.9222498
5.2003656	6.6554399
5.3006676	6.0290217
5.4003476	3.5930216
5.5004096	4.7034879
5.6003773	6.9214144
5.7004101	7.9392114
5.8003507	8.3138208
5.9003220	8.6133413
6.0006495	5.8591309
6.1004119	3.4479175
6.2003807	2.2316432
6.3003195	0.0035895
6.4003748	0.8822674
6.5003028	0.9128648
6.6003845	2.6490896
6.7004068	3.9338701
6.8003556	4.4339347
6.9002501	5.5838761
7.0004170	6.3864594
7.1003814	5.7319450
7.2002685	5.2941718
7.3003459	4.6250281
7.4003707	3.9347548
7.5004047	5.1573448
7.6003894	6.2056093
7.7003994	6.4152112
7.8003904	5.6498041
7.9004631	4.5694389
8.0004247	2.9525697
8.1003305	2.1702800
8.2003643	3.3553627
8.3007406	3.6543312
8.4004457	3.6317773
8.5004017	4.7344546
8.6003008	4.3893280
8.7003579	4.5066495
8.8003748	4.4969349
8.9004004	4.1720991
9.0003702	4.9163117
9.1003459	5.8616729
9.2002465	6.8940916
9.3003274	7.4131174
9.4003763	6.9783840
9.5003796	6.0121579
9.6003474	4.5982370
9.7003873	2.5779164
9.8003771	2.4636385
9.9002637	2.4031022
10.0003558	2.3830099
10.1003860	2.4001477
10.2004193	2.6661942
10.3002250	2.4776759
10.4003364	3.0256824
10.5003213	3.4536784
10.6002980	3.9348583
10.7002644	4.7233553
10.8004401	4.7439384
10.9003850	4.6710296
11.0002808	4.3941507
11.1003735	4.6114697
11.2003535	4.9428854
11.3003753	5.3309388
11.4003141	5.1385155
11.5003087	4.0541873
11.6003799	2.4852474
11.7002698	1.4102007
11.8003786	0.6146668
11.9003315	0.9097990
12.0009057	1.7264971
12.1004237	2.5126026
12.2003174	3.0641005
12.3005043	3.9368923
12.4004308	4.5549407
12.5003430	5.4165277
12.6004352	5.6678152
12.7003648	4.3178868
12.8003597	3.0082250
12.9005166	1.7094146
13.0004024	1.4592756
13.1003497	1.1341422
13.2003443	1.0085087
13.3002926	1.7692115
13.4003517	2.6328671
13.5003372	4.0330505
13.6003430	4.1428580
13.7005747	4.2734146
13.8002655	4.0516648
13.9004116	3.5118849
14.0004296	3.6214080
14.1003889	4.4389625
14.2003761	5.2630558
14.3007903	5.7302747
14.4004004	5.9437070
14.5003525	4.6025715
14.6009254	2.9361513
14.7004227	0.7666820
14.8003507	-0.0025595
14.9003679	0.2623798
15.0003835	0.8149453
15.1003121	2.3237433
15.2003359	3.8111129
15.3004669	4.5397501
15.4004626	4.8233638
15.5004257	4.0797296
15.6003098	3.1188533
15.7003100	2.8578234
15.8003617	3.2613308
15.9003328	5.0798783
16.0002913	6.4265127
16.1002470	7.8724933
16.2003141	8.1947041
16.3005028	7.9094825
16.4002245	6.4396443
16.5003679	4.7969675
16.6002819	3.7429957
16.7003886	3.9254389
16.8004032	5.2194319
16.9003796	6.8190646
17.0003072	8.1690254
17.1002788	8.5925074
17.2003661	8.2701931
17.3003837	6.9365139
17.4003651	5.7083387
17.5005289	7.0886769
17.6003738	8.0649118
17.7003484	9.5995293
17.8004841	10.7324543
17.9004014	10.6720476
18.0002752	9.4561062
18.1021212	7.4235687
18.2004390	5.8803210
18.3003392	5.2524738
18.4002363	5.7156153
18.5003628	6.7503710
18.6002890	7.9141202
18.7006390	8.2139978
18.8003249	8.6780844
18.9006113	7.9085760
19.0005791	6.2992253
19.1004201	6.7286377
19.2003430	5.8166146
19.3003174	5.3138385
19.4003331	7.7002854
19.5002580	8.9962864
19.6003054	10.7128897
19.7002952	12.2979069
19.8014712	12.6830072
19.9004012	11.5512209
20.0003177	9.6317701
20.1003046	7.2928004
20.2003054	5.8277659
20.3003369	5.5775981
20.4003446	6.1134591
20.5003305	7.5628400
20.6003761	8.3510523
20.7008307	9.9354839
20.8003569	9.3595934
20.9003182	7.6299820
21.0003348	8.5160437
21.1003292	7.6217599
21.2003359	7.8107696
21.3003622	7.3870902
21.4004385	9.2608919
21.5004557	8.9536972
21.6007480	7.6809449
21.7003994	8.2534161
21.8002691	7.3477745
21.9004849	6.0793257
22.0002568	7.9038448
22.1003379	7.3326349
22.2004114	6.3225946
22.3002662	6.2947097
22.4003571	5.4905734
22.5003584	5.2108588
22.6003571	5.5932865
22.7003405	5.7146497
22.8003008	5.7836614
22.9002972	5.0857806
23.0002870	6.0554247
23.1003743	4.9730287
23.2003786	2.6665392
23.3003592	3.6620688
23.4002542	2.0492630
23.5003640	1.2578248
23.6003203	4.0837135
23.7003118	4.7162890
23.8002501	5.8565922
23.9005842	5.7579436
24.0003569	5.8519382
24.1002721	3.3258352
24.2002593	-0.2668003
24.3004398	-0.9456751
24.4003574	-2.0949187
24.5001874	-2.2135830
24.6003407	-0.3011975
24.7005898	-0.0131201
24.8002184	-0.5062090
24.9003402	-0.3485046
25.0021706	-1.6551740
25.1004764	-3.3251703
25.2003802	-2.4085581
25.3004193	-3.6828940
25.4004772	-4.2914190
25.5004078	-4.4092355
25.6002762	-4.1380286
25.7003471	-3.4611876
25.8003116	-2.5955179
25.9004122	-1.9521067
26.0003210	-1.5820324
26.1002972	-2.0906706
26.2003466	-1.8053086
26.3003366	-3.2950392
26.4002883	-5.7435732
26.5003341	-6.4866829
26.6003635	-6.5166211
26.7002678	-7.4841042
26.8003254	-6.0429792
26.9003133	-4.5301070
27.0003484	-3.6199760
27.1004227	-3.4245048
27.2003594	-2.9468312
27.3003515	-4.4098639
27.4003886	-6.7283621
27.5003843	-6.4302826
27.6004183	-7.0366940
27.7004142	-6.4906540
27.8003341	-4.8906708
27.9003318	-3.2909184
28.0003218	-2.2361214
28.1004851	-2.4239149
28.2003520	-3.9477348
28.3004180	-5.8093948
28.4003231	-7.0530820
28.5002977	-7.3379703
28.6003023	-6.9477282
28.7006185	-6.0349751
28.8003241	-4.0955229
28.9003377	-3.4377725
29.0003727	-3.5182457
29.1003092	-4.3572402
29.2003620	-5.4114060
29.3004201	-7.0840888
29.4004152	-8.4854326
29.5002770	-8.2183704
29.6004741	-8.4200468
29.7003978	-7.9109120
29.8003154	-6.2631612
29.9003126	-5.0398936
30.0003628	-3.9335673
30.1005699	-3.7490935
30.2003361	-4.0299897
30.3002870	-5.0986395
30.4003274	-5.7535777
30.5003525	-6.6755986
30.6004355	-6.9891562
30.7003551	-7.1319776
30.8003971	-6.5434265
30.9003845	-5.4708805
31.0003482	-4.5267034
31.1003530	-3.8069279
31.2004380	-3.3366933
31.3003978	-3.0380647
31.4007680	-3.0172710
31.5003907	-3.8838284
31.6003684	-4.9428606
31.7002547	-6.2196021
31.8002913	-6.8777404
31.9005855	-7.3745408
32.0002701	-6.5644712
32.1004045	-5.2486324
32.2004365	-3.6614306
32.3005911	-2.4597628
32.4003561	-2.0333517
32.5004009	-2.2799876
32.6002847	-3.1558836
32.7004214	-4.1508894
32.8003907	-4.7138138
32.9003315	-4.6272278
33.0005299	-4.5194197
33.1003433	-3.1080837
33.2003494	-2.0409000
33.3005801	-1.8007896
33.4003328	-2.7705488
33.5003062	-4.1842422
33.6003448	-5.2862506
33.7003540	-5.2046008
33.8002734	-4.1613631
33.9003978	-2.2067227
34.0003612	-1.3009202
34.1002785	-1.6576796
34.2002732	-2.2105584
34.3002294	-4.5127077
34.4002079	-6.0945807
34.5004165	-6.4621820
34.6004603	-5.9712520
34.7003492	-4.7061863
34.8004298	-2.4304402
34.9007562	-2.0327373
35.0004037	-2.1230516
35.1005146	-2.3480792
35.2004204	-3.8396981
35.3004439	-4.4904099
35.4003195	-4.2251906
35.5003249	-4.3429599
35.6003689	-3.1615500
35.7008036	-2.3740001
35.8003612	-2.3898177
35.9005036	-2.8205359
36.0003336	-2.7970362
36.1003103	-1.8122631
36.2002680	-0.7422156
36.3002483	0.6727928
36.4003707	0.8697883
36.5003382	-1.7081876
36.6004316	-3.7896130
36.7003218	-5.6799464
36.8003487	-5.8095503
36.9006249	-5.0807309
37.0003973	-3.8988218
37.1005581	-3.3361361
37.2005274	-2.2710960
37.3004541	-1.5558554
37.4003274	-1.9229950
37.5002944	-2.0601685
37.6002627	-3.4499869
37.7004844	-4.9247580
37.8007562	-5.6653504
37.9003456	-5.6156020
38.0006216	-4.5426841
38.1003753	-4.2868586
38.2003653	-3.6878192
38.3004984	-2.9451497
38.4002606	-2.4541047
38.5005970	-2.1189299
38.6003919	-2.4777315
38.7003520	-2.9258013
38.8005614	-3.6699977
38.9003720	-4.1172090
39.0003871	-3.7439680
39.1003323	-4.0870233
39.2003448	-3.3242948
39.3004278	-3.6249650
39.4005338	-3.4677641
39.5004201	-3.2872312
39.6002834	-3.2475510
39.7014986	-2.9217165
39.8007593	-2.3846068
39.9003860	-2.3266339
39.9551288	0.0000000
