# Time	Input
-4.6999741	0.0000000
-4.5998164	0.0000000
-4.4997934	0.0000000
-4.3995274	0.0000000
-4.2998807	0.0000000
-4.1996585	0.0000000
-4.0998408	0.0000000
-3.9999462	0.0000000
-3.8998303	0.0000000
-3.7997366	0.0000000
-3.6999882	0.0000000
-3.6000346	0.0000000
-3.4999119	0.0000000
-3.3999124	0.0000000
-3.2998769	0.0000000
-3.1999247	0.0000000
-3.0999908	0.0000000
-2.9999096	0.0000000
-2.8999183	0.0000000
-2.7997947	0.0000000
-2.6999114	0.0000000
-2.5999181	0.0000000
-2.4997632	0.0000000
-2.3998093	0.0000000
-2.2998815	0.0000000
-2.2000238	0.0000000
-2.0999232	0.0000000
-1.9999171	0.0000000
-1.9000102	0.0000000
-1.7999155	0.0000000
-1.7000054	0.0000000
-1.5999634	0.0000000
-1.4998728	0.0000000
-1.3998712	0.0000000
-1.2999706	0.0000000
-1.2000223	0.0000000
-1.0998912	0.0000000
-0.9999624	0.0000000
-0.8998961	0.0000000
-0.7999572	0.0000000
-0.6998799	0.0000000
-0.5999826	0.0000000
-0.4998787	0.0000000
-0.3997937	0.0000000
-0.2999967	0.0000000
-0.1999736	0.0000000
-0.0997868	0.0000000
0.0000000	-7.6127863
0.1000893	-7.6202054
0.2000545	-4.7483726
0.3000666	1.3669066
0.4003016	6.5499444
0.5000929	10.8517456
0.6001702	13.5381422
0.7003054	13.8152990
0.8000545	11.5839548
0.9001029	9.4910526
1.0000220	8.7253580
1.1002045	8.9951296
1.2000660	10.4891491
1.3000591	11.7622843
1.4000036	12.9072742
1.5000952	12.8843222
1.6001326	12.1474829
1.7000312	11.4211206
1.8000591	11.3972559
1.9000289	12.0159130
2.0000297	13.0819120
2.1001180	13.8893900
2.2000609	13.9133577
2.3003072	13.8264933
2.4000497	13.8256369
2.5000801	13.2147017
2.6001098	13.0222130
2.7001306	13.4658670
2.8000758	13.7060623
2.9000717	13.7656946
3.0001352	13.6606083
3.1001093	13.2619038
3.2003103	12.3964005
3.3001249	11.7642069
3.4000952	11.3159389
3.5001398	10.7655096
3.6002665	10.5868397
3.7001208	10.5265923
3.7999977	10.1459608
3.9001380	10.1537066
4.0001664	10.3756781
4.1001974	10.3938627
4.2000737	9.5216045
4.3000648	7.9755750
4.4000625	6.8815536
4.5000858	5.9314976
4.6000189	5.4152622
4.7001047	5.2973747
4.8001124	4.8414550
4.9000468	5.1086583
5.0001119	5.8141484
5.1001341	6.5686584
5.2001295	6.9687433
5.3000786	6.7193184
5.4001539	5.9391532
5.5001505	3.1678302
5.6004193	0.5574889
5.7001853	-1.6533916
5.8000550	-3.5758719
5.9000323	-3.6349120
6.0000451	-3.0300591
6.1000786	-2.1163177
6.2001324	-0.8003987
6.3000159	0.4009519
6.4001249	1.5626259
6.5001308	2.3077466
6.6001976	2.2082670
6.7003576	2.2495303
6.8002115	1.7341475
6.9001628	1.1312389
7.0001062	0.6435180
7.1000671	0.2143143
7.2000479	0.1684947
7.3000248	0.1407188
7.4000794	0.5215026
7.5000617	1.1926447
7.6001001	1.8896267
7.7000886	2.3373365
7.8000927	2.1368067
7.9000786	1.9412487
8.0000177	1.3927680
8.1000084	0.9715649
8.2001894	0.9081399
8.3001546	0.6670426
8.4001065	0.4934839
8.5000924	0.5151056
8.6001009	0.8010684
8.7001777	0.9482041
8.8000991	1.0542914
8.9000988	1.3205752
9.0001659	1.6878928
9.1001923	1.9229323
9.2000120	1.9241650
9.2999854	1.3083193
9.4000581	0.8377833
9.5001004	0.3600802
9.6000553	-0.6168483
9.7000456	-1.4464582
9.8000543	-1.7970614
9.9001011	-1.8495097
10.0000758	-0.9367967
10.1001188	0.4924103
10.2000330	1.5424483
10.3001695	2.2547801
10.4000358	2.1790652
10.5001516	2.0502126
10.6001114	1.5145174
10.7001654	0.6120175
10.8001262	-0.2637847
10.9000786	-1.3489109
11.0000584	-1.4071263
11.1001644	-1.5885587
11.2001723	-1.8676647
11.3000154	-1.4778708
11.4000410	-0.9050116
11.5001631	-0.5204835
11.6000440	-0.3833688
11.7001446	-0.4455481
11.8000394	-0.6664417
11.9001467	-0.9361017
12.0001290	-0.9409683
12.1001129	-0.5836985
12.2001521	0.1347085
12.3001615	0.3958762
12.4001208	0.2178202
12.5000806	-0.3898317
12.6001741	-1.0747545
12.7002644	-1.5852809
12.8001149	-1.8889513
12.9000993	-1.6272619
13.0000233	-1.0205877
13.1001636	-0.3372506
13.2002163	0.5642684
13.3001382	0.4752918
13.4000292	0.1324266
13.5001004	-0.4843226
13.6002870	-1.4561020
13.7001157	-2.2092276
13.8001452	-2.9901860
13.9000852	-3.0891211
14.0000479	-3.1386476
14.1001331	-2.8616791
14.2000947	-2.3318961
14.3001178	-1.9539933
14.4001423	-1.1522019
14.5003046	-0.8039673
14.6000602	-1.0472302
14.7001144	-1.5392610
14.8002527	-2.4117813
14.9002665	-3.0543942
15.0000824	-3.4401436
15.1001585	-3.9308734
15.2000374	-3.9366741
15.3001413	-3.6938667
15.4000031	-2.9928870
15.5000463	-2.1275830
15.6000305	-1.7382305
15.7001019	-1.5157561
15.8001062	-1.7315965
15.9000901	-2.2015014
16.0000207	-2.5817177
16.1000343	-3.0730553
16.2001710	-3.2682595
16.3001521	-3.2155612
16.4001160	-2.9772398
16.5001498	-2.8700292
16.6000530	-2.8069785
16.7001290	-2.7652185
16.8000192	-2.6722827
16.9000387	-2.5755877
17.0001331	-2.6231289
17.1001718	-2.5742466
17.2000663	-2.9767590
17.3001032	-3.5528336
17.4001679	-4.3785439
17.5000768	-5.0202832
17.6000842	-5.3752141
17.7001106	-5.6388049
17.8000586	-5.3325086
17.9002964	-4.5253792
18.0000591	-3.6337748
18.1000317	-2.4836648
18.2000202	-2.1887915
18.3001889	-2.0349534
18.4000986	-2.2992253
18.5003080	-2.8720956
18.6001075	-3.1887059
18.7000653	-3.7417896
18.8002435	-4.1636195
18.9000338	-4.3608599
19.0001580	-4.8480625
19.1000225	-5.6255064
19.2000666	-6.2029858
19.3000980	-6.1729002
19.4000960	-5.2682343
19.5000737	-4.2028427
19.6001736	-3.4180853
19.7002156	-2.4517746
19.8000883	-1.5210888
19.9000289	-1.1738808
20.0000676	-1.4351985
20.1000625	-1.8448081
20.2001244	-2.4506018
20.3001280	-3.1453474
20.4000392	-3.4922612
20.5000284	-3.5836892
20.6003540	-3.4096818
20.7001436	-3.0049942
20.8001836	-2.7779505
20.9001861	-2.7308760
21.0000893	-2.7014360
21.1001830	-2.8910124
21.2000909	-3.1904545
21.3000381	-3.4782708
21.4000097	-3.3830223
21.5000906	-3.1713259
21.6001216	-2.7377079
21.6999380	-2.3379126
21.8001037	-2.0398269
21.9001577	-1.6692004
22.0001513	-1.7322736
22.1000573	-1.8324257
22.2000259	-1.6668050
22.3000115	-1.6060239
22.4001393	-1.6471097
22.5001615	-1.5648595
22.6003638	-1.4572179
22.7000141	-1.3697559
22.7999726	-1.5137150
22.9001044	-1.8978056
23.0001114	-1.6896873
23.1001288	-1.2778605
23.2001303	-0.8772694
23.3002371	-0.6579009
23.4001528	-0.6763798
23.5001464	-0.8620692
23.6001347	-1.3276668
23.7000835	-1.8957894
23.8000663	-2.5743721
23.9003323	-3.2512491
24.0002499	-3.3209934
24.1003103	-2.8791773
24.2001260	-2.0798502
24.3000522	-1.6546937
24.4000783	-1.3817555
24.5001075	-1.4471668
24.6000996	-1.8144842
24.7002227	-2.2137952
24.8002668	-2.5670226
24.9002726	-2.1550992
25.0002473	-1.3867509
25.1002775	-0.3756734
25.2001091	0.5322890
25.2999992	0.3103468
25.4000330	-0.7995486
25.5002153	-2.3347290
25.6001902	-3.5180109
25.7000850	-3.6885171
25.8001495	-3.0887618
25.9000934	-2.3584564
26.0002363	-1.8276057
26.1001769	-1.3941571
26.2001119	-1.5479268
26.3000284	-1.8947675
26.4001812	-2.4402552
26.5001362	-2.9750752
26.6000008	-3.2853045
26.7001723	-3.2271731
26.8000783	-2.6335654
26.8999749	-2.0866184
27.0001052	-1.5748420
27.1001556	-1.3870223
27.2000817	-1.5336045
27.3001052	-1.8619440
27.4001326	-2.1318462
27.5002063	-2.1104388
27.6000845	-2.0086601
27.7000430	-1.8101486
27.8001574	-1.5041174
27.9000801	-1.0125248
28.0001039	-0.5058899
28.1002844	-0.1170229
28.2000963	-0.0978899
28.3000952	-0.6800022
28.4001132	-1.1298234
28.5000563	-1.6999980
28.6000522	-2.0778339
28.7001761	-2.2341073
28.8001480	-2.1298153
28.8999849	-2.0909600
29.0001196	-2.0988939
29.1001521	-2.2673879
29.2001915	-2.2620070
29.3002301	-2.3399055
29.4000730	-2.2043839
29.5002330	-1.9501665
29.6000072	-1.8412246
29.7001055	-1.7178962
29.8001426	-1.7373672
29.9001303	-1.9949237
29.9463035	0.0000000
