# Time	x	y	z	roll	pitch	yaw	vx	vy	vz	
-4.3173678	-0.0000003	0.0000001	-0.3440100	-0.1982625	-0.0607088	1.0052326	-0.0000593	0.0001872	-0.0000895
-4.2174758	-0.0001915	0.0001111	-0.3441397	-0.1981186	-0.0513054	1.0057869	0.0002688	0.0048544	-0.0043613
-4.1174228	-0.0004914	0.0006449	-0.3425571	-0.1973945	-0.0476414	1.0072088	0.0045765	0.0088636	-0.0106476
-4.0174656	-0.0007695	0.0016550	-0.3441214	-0.1959778	-0.0516259	1.0096631	0.0087999	0.0125953	-0.0146807
-3.9174666	-0.0011092	0.0031452	-0.3455321	-0.1942685	-0.0623822	1.0128827	0.0108828	0.0142334	-0.0123738
-3.8174861	-0.0016600	0.0046289	-0.3445042	-0.1928594	-0.0775689	1.0161460	0.0073549	0.0138508	-0.0036568
-3.7175096	-0.0026246	0.0055456	-0.3409169	-0.1922065	-0.0944263	1.0186309	-0.0010934	0.0126579	0.0063246
-3.6174633	-0.0041612	0.0055134	-0.3427371	-0.1920344	-0.1103953	1.0197384	-0.0140759	0.0106547	0.0112675
-3.5175104	-0.0062129	0.0044361	-0.3405798	-0.1919091	-0.1220206	1.0194985	-0.0241685	0.0088967	0.0093961
-3.4174948	-0.0084790	0.0027974	-0.3389310	-0.1917121	-0.1262735	1.0186657	-0.0267453	0.0092597	0.0032712
-3.3174961	-0.0105182	0.0013662	-0.3391066	-0.1918318	-0.1218469	1.0181644	-0.0214265	0.0107956	-0.0010399
-3.2174958	-0.0122593	0.0004756	-0.3424515	-0.1928231	-0.1094201	1.0185834	-0.0130673	0.0115252	-0.0037207
-3.1175114	-0.0138222	0.0003022	-0.3369215	-0.1946854	-0.0925637	1.0197372	-0.0055837	0.0112062	0.0001002
-3.0174874	-0.0148145	0.0005007	-0.3442401	-0.1970195	-0.0751519	1.0207474	-0.0043138	0.0129026	-0.0023662
-2.9175012	-0.0164384	0.0006946	-0.3429902	-0.1996258	-0.0606079	1.0207513	-0.0078310	0.0150895	0.0015129
-2.8174902	-0.0180705	0.0006852	-0.3461277	-0.1999723	-0.0528421	1.0199322	-0.0123961	0.0159129	0.0003739
-2.7174733	-0.0202494	0.0004223	-0.3430631	-0.1994108	-0.0530707	1.0190436	-0.0139596	0.0174628	0.0023456
-2.6174871	-0.0226089	0.0003151	-0.3450318	-0.1975266	-0.0613354	1.0190023	-0.0134131	0.0217115	-0.0000292
-2.5174976	-0.0250420	0.0005563	-0.3492995	-0.1959102	-0.0758625	1.0201343	-0.0110943	0.0264454	-0.0015595
-2.4174950	-0.0281387	0.0011919	-0.3450834	-0.1947505	-0.0936078	1.0220714	-0.0095056	0.0309086	0.0068284
-2.3175171	-0.0317259	0.0020831	-0.3440098	-0.1946731	-0.1095433	1.0237840	-0.0107993	0.0353701	0.0121069
-2.2172972	-0.0356958	0.0027982	-0.3460195	-0.1955010	-0.1193534	1.0242151	-0.0169698	0.0384805	0.0105179
-2.1174804	-0.0402929	0.0032026	-0.3441283	-0.1965006	-0.1201544	1.0229602	-0.0238606	0.0393438	0.0064758
-2.0174886	-0.0451254	0.0034277	-0.3368882	-0.1973419	-0.1111937	1.0203339	-0.0281339	0.0398149	0.0030319
-1.9174605	-0.0499930	0.0032601	-0.3372778	-0.1976191	-0.0967599	1.0175604	-0.0271093	0.0410774	-0.0045786
-1.8172685	-0.0545514	0.0032072	-0.3400019	-0.1970997	-0.0821200	1.0156010	-0.0242308	0.0403142	-0.0109932
-1.7174679	-0.0587758	0.0032210	-0.3410579	-0.1958378	-0.0715004	1.0145828	-0.0238789	0.0392738	-0.0144998
-1.6172838	-0.0632076	0.0030904	-0.3427239	-0.1942663	-0.0666734	1.0142079	-0.0267332	0.0397295	-0.0144459
-1.5174797	-0.0680465	0.0028140	-0.3433060	-0.1926538	-0.0673417	1.0141694	-0.0292380	0.0427080	-0.0124665
-1.4174807	-0.0728736	0.0026795	-0.3441873	-0.1914167	-0.0706769	1.0143117	-0.0278341	0.0456927	-0.0111625
-1.3174833	-0.0782732	0.0029997	-0.3415520	-0.1907043	-0.0731084	1.0144461	-0.0207938	0.0467360	-0.0072977
-1.2174781	-0.0826799	0.0041198	-0.3461577	-0.1909109	-0.0729995	1.0144662	-0.0114079	0.0472839	-0.0075894
-1.1174582	-0.0869963	0.0057582	-0.3441231	-0.1920283	-0.0710600	1.0140657	-0.0049171	0.0450936	-0.0014928
-1.0174866	-0.0913908	0.0076970	-0.3400212	-0.1936462	-0.0695662	1.0128550	-0.0045245	0.0425842	0.0071494
-0.9174925	-0.0949597	0.0094246	-0.3453067	-0.1953916	-0.0709632	1.0107637	-0.0089285	0.0411099	0.0048307
-0.8173018	-0.0992298	0.0106323	-0.3399680	-0.1967418	-0.0765698	1.0083681	-0.0122847	0.0393929	0.0055022
-0.7174902	-0.1031010	0.0118615	-0.3423297	-0.1974195	-0.0843604	1.0065152	-0.0101869	0.0406012	-0.0014650
-0.6174953	-0.1071840	0.0136005	-0.3396528	-0.1974181	-0.0923481	1.0057956	-0.0045615	0.0434881	-0.0040252
-0.5174492	-0.1112274	0.0160423	-0.3340756	-0.1968845	-0.0977293	1.0060379	0.0002998	0.0451999	-0.0051616
-0.4175265	-0.1144742	0.0180523	-0.3408661	-0.1961817	-0.0985087	1.0064471	-0.0019967	0.0460146	-0.0142596
-0.3174973	-0.1184466	0.0201757	-0.3419698	-0.1955423	-0.0960157	1.0060676	-0.0093087	0.0455347	-0.0164806
-0.2172869	-0.1224683	0.0214848	-0.3425943	-0.1948048	-0.0918939	1.0047401	-0.0175901	0.0438556	-0.0174714
-0.1172900	-0.1267075	0.0222018	-0.3420723	-0.1942763	-0.0876951	1.0029465	-0.0218199	0.0418238	-0.0151366
-0.0173105	-0.1309247	0.0226175	-0.3460514	-0.1942163	-0.0848571	1.0014436	-0.0209099	0.0401716	-0.0140639
0.0828726	-0.1353773	0.0233504	-0.3423563	-0.1948639	-0.0822790	1.0006442	-0.0141013	0.0398516	-0.0058451
0.1827315	-0.1390680	0.0240355	-0.3456301	-0.1962393	-0.0782406	1.0001287	-0.0175382	0.0385394	-0.0023668
0.2827151	-0.1435740	0.0236323	-0.3419785	-0.1981604	-0.0754676	0.9933137	-0.0337476	0.0301523	0.0021056
0.3824957	-0.1480548	0.0211209	-0.3381235	-0.1987692	-0.0724768	0.9843491	-0.0501739	0.0114149	-0.0014590
0.4825318	-0.1509806	0.0164409	-0.3398680	-0.1984715	-0.0681196	0.9741088	-0.0669962	-0.0144967	0.0066747
0.5827203	-0.1527047	0.0092100	-0.3449968	-0.1970401	-0.0670580	0.9644710	-0.0806155	-0.0367228	0.0072579
0.6827215	-0.1552373	-0.0005757	-0.3376690	-0.1950908	-0.0657425	0.9552827	-0.0913690	-0.0442168	0.0037858
0.7827372	-0.1572284	-0.0113460	-0.3376726	-0.1935743	-0.0618156	0.9455099	-0.1043071	-0.0488518	0.0003788
0.8827295	-0.1589156	-0.0224713	-0.3419588	-0.1934550	-0.0533107	0.9339486	-0.1139600	-0.0528401	-0.0022151
0.9824950	-0.1612516	-0.0348920	-0.3449404	-0.1948891	-0.0402611	0.9204748	-0.1197401	-0.0530024	-0.0017245
1.0825139	-0.1657634	-0.0486631	-0.3381989	-0.1973319	-0.0261268	0.9056017	-0.1244694	-0.0500458	0.0073890
1.1824640	-0.1690501	-0.0605526	-0.3408262	-0.2000712	-0.0161485	0.8898216	-0.1316192	-0.0493293	0.0067687
1.2825321	-0.1733477	-0.0736273	-0.3425923	-0.2020851	-0.0138188	0.8746020	-0.1419830	-0.0515829	0.0024278
1.3825162	-0.1799565	-0.0894470	-0.3373588	-0.2031881	-0.0185711	0.8610550	-0.1500311	-0.0502804	-0.0025395
1.4825295	-0.1848756	-0.1022784	-0.3431651	-0.2037351	-0.0278274	0.8496563	-0.1534314	-0.0439614	-0.0211178
1.5827054	-0.1923473	-0.1175151	-0.3396954	-0.2048705	-0.0380148	0.8404918	-0.1465835	-0.0378506	-0.0246427
1.6825551	-0.1993318	-0.1313258	-0.3382733	-0.2071737	-0.0461572	0.8317576	-0.1379146	-0.0344740	-0.0238676
1.7827067	-0.2060423	-0.1442009	-0.3320036	-0.2100958	-0.0534056	0.8216369	-0.1382943	-0.0368358	-0.0185418
1.8826972	-0.2129459	-0.1578617	-0.3377788	-0.2125132	-0.0611387	0.8092375	-0.1529198	-0.0408295	-0.0229165
1.9827180	-0.2205596	-0.1727594	-0.3311032	-0.2129161	-0.0709626	0.7944271	-0.1720381	-0.0469804	-0.0208882
2.0827062	-0.2289266	-0.1885193	-0.3332494	-0.2113431	-0.0798674	0.7789323	-0.1866366	-0.0518450	-0.0251605
2.1827036	-0.2384320	-0.2060816	-0.3371154	-0.2092407	-0.0848389	0.7641863	-0.1894158	-0.0564243	-0.0240884
2.2826975	-0.2476876	-0.2237254	-0.3358474	-0.2088451	-0.0841095	0.7504839	-0.1852688	-0.0633912	-0.0106107
2.3825152	-0.2570531	-0.2413117	-0.3399746	-0.2108936	-0.0791574	0.7386730	-0.1851063	-0.0665877	0.0010613
2.4827121	-0.2663336	-0.2577322	-0.3372744	-0.2149300	-0.0708485	0.7259279	-0.1896825	-0.0650223	0.0173607
2.5824809	-0.2774317	-0.2754839	-0.3358474	-0.2192174	-0.0627699	0.7116971	-0.1955640	-0.0626794	0.0296329
2.6825423	-0.2891747	-0.2923823	-0.3350709	-0.2216100	-0.0566656	0.6974420	-0.1978798	-0.0581410	0.0271041
2.7824855	-0.3011084	-0.3078679	-0.3392990	-0.2215863	-0.0560227	0.6833798	-0.2002995	-0.0531991	0.0089040
2.8827003	-0.3134695	-0.3260808	-0.3276856	-0.2195622	-0.0601870	0.6707923	-0.2003261	-0.0546977	-0.0007347
2.9825093	-0.3254368	-0.3430650	-0.3332805	-0.2165797	-0.0657157	0.6599041	-0.1944125	-0.0639680	-0.0203915
3.0825295	-0.3355976	-0.3598423	-0.3306455	-0.2139952	-0.0697144	0.6508936	-0.1874455	-0.0781449	-0.0224070
3.1825500	-0.3453313	-0.3788618	-0.3379462	-0.2130401	-0.0703392	0.6427252	-0.1856140	-0.0934156	-0.0219650
3.2825352	-0.3546637	-0.3986013	-0.3368886	-0.2141492	-0.0676539	0.6340985	-0.1955826	-0.1083586	-0.0082498
3.3825108	-0.3640138	-0.4186891	-0.3375570	-0.2166877	-0.0624964	0.6242065	-0.2049800	-0.1150088	-0.0038310
3.4825349	-0.3745542	-0.4402288	-0.3327298	-0.2187633	-0.0543339	0.6132731	-0.2095378	-0.1129677	-0.0050472
3.5825418	-0.3852349	-0.4607646	-0.3369359	-0.2193826	-0.0461721	0.6024529	-0.2042632	-0.1026295	-0.0160274
3.6824745	-0.3972390	-0.4821024	-0.3275746	-0.2184269	-0.0432900	0.5928986	-0.1933518	-0.0937038	-0.0115142
3.7825280	-0.4068046	-0.4991043	-0.3328558	-0.2159747	-0.0492402	0.5843104	-0.1893210	-0.0911711	-0.0179964
3.8825111	-0.4174973	-0.5178714	-0.3364361	-0.2120074	-0.0613314	0.5759395	-0.1985554	-0.0960238	-0.0273487
3.9824937	-0.4293786	-0.5378057	-0.3354350	-0.2068115	-0.0763533	0.5671832	-0.2095157	-0.1036501	-0.0377806
4.0825155	-0.4405391	-0.5558562	-0.3301718	-0.2016458	-0.0896575	0.5588223	-0.2103845	-0.1119593	-0.0427215
4.1825295	-0.4515904	-0.5787967	-0.3375047	-0.1980280	-0.0966949	0.5519295	-0.1987681	-0.1210180	-0.0473949
4.2826465	-0.4603385	-0.5978834	-0.3369728	-0.1972503	-0.0956158	0.5470648	-0.1787678	-0.1307310	-0.0383391
4.3825467	-0.4679930	-0.6191023	-0.3412015	-0.1993762	-0.0886012	0.5425828	-0.1701219	-0.1384336	-0.0274811
4.4825398	-0.4760497	-0.6393916	-0.3376750	-0.2036487	-0.0813194	0.5363875	-0.1877559	-0.1442580	-0.0040353
4.5825641	-0.4871615	-0.6620680	-0.3344974	-0.2083831	-0.0774053	0.5269524	-0.2271988	-0.1429856	0.0127981
4.6825521	-0.5016526	-0.6861380	-0.3386511	-0.2110926	-0.0775309	0.5149735	-0.2689369	-0.1317786	0.0068303
4.7825308	-0.5203005	-0.7108827	-0.3370518	-0.2101932	-0.0834373	0.5029456	-0.2900997	-0.1188464	-0.0114204
4.8824968	-0.5396990	-0.7347151	-0.3327861	-0.2059197	-0.0942140	0.4943708	-0.2841090	-0.1107514	-0.0329131
4.9826947	-0.5563794	-0.7562327	-0.3369155	-0.2009747	-0.1026315	0.4915914	-0.2482338	-0.1110418	-0.0503044
5.0826865	-0.5697896	-0.7758444	-0.3370258	-0.1978244	-0.1049875	0.4936168	-0.2091144	-0.1219415	-0.0471824
5.1825234	-0.5810045	-0.7971664	-0.3389406	-0.1987033	-0.1032474	0.4962903	-0.1942202	-0.1431469	-0.0328607
5.2825055	-0.5910000	-0.8189306	-0.3380268	-0.2027924	-0.0994697	0.4945492	-0.2190356	-0.1662111	-0.0162685
5.3825175	-0.6048010	-0.8469250	-0.3412890	-0.2070576	-0.0953349	0.4863731	-0.2649981	-0.1781496	-0.0192504
5.4825134	-0.6206287	-0.8744544	-0.3338646	-0.2082154	-0.0931771	0.4732580	-0.3060949	-0.1778447	-0.0271511
5.5825121	-0.6393498	-0.9031321	-0.3358098	-0.2054561	-0.0949740	0.4609134	-0.3149304	-0.1696875	-0.0475677
5.6825116	-0.6590934	-0.9329371	-0.3427997	-0.2010121	-0.0980845	0.4533010	-0.2951964	-0.1643679	-0.0632085
5.7825178	-0.6762325	-0.9583502	-0.3371883	-0.1982788	-0.1003958	0.4515100	-0.2668418	-0.1685531	-0.0550068
5.8825047	-0.6913699	-0.9845679	-0.3398250	-0.1986551	-0.1039250	0.4509800	-0.2608294	-0.1780073	-0.0397917
5.9825303	-0.7072379	-1.0112943	-0.3369747	-0.2004344	-0.1120205	0.4471378	-0.2750026	-0.1855319	-0.0258104
6.0825098	-0.7254217	-1.0418742	-0.3411774	-0.2012855	-0.1218036	0.4385638	-0.2971055	-0.1887840	-0.0293568
6.1825285	-0.7446212	-1.0717153	-0.3433474	-0.2002048	-0.1321320	0.4271369	-0.3116424	-0.1864602	-0.0382044
6.2825436	-0.7613574	-1.0965876	-0.3412678	-0.1981943	-0.1419512	0.4165575	-0.3115796	-0.1829131	-0.0361505
6.3825224	-0.7766030	-1.1188451	-0.3351481	-0.1971956	-0.1478803	0.4086210	-0.3051792	-0.1804309	-0.0219916
6.4826929	-0.7976967	-1.1477052	-0.3376548	-0.1977417	-0.1471774	0.4025619	-0.3031358	-0.1783912	-0.0087113
6.5825114	-0.8191335	-1.1761720	-0.3407957	-0.1986500	-0.1399825	0.3966908	-0.3046694	-0.1789265	-0.0035975
6.6825032	-0.8391357	-1.2024245	-0.3379561	-0.1986392	-0.1288842	0.3900117	-0.3080887	-0.1810547	-0.0009431
6.7827075	-0.8624345	-1.2320436	-0.3401870	-0.1979569	-0.1177469	0.3825772	-0.3230105	-0.1832892	-0.0038949
6.8825411	-0.8874888	-1.2625546	-0.3438944	-0.1974836	-0.1109597	0.3737821	-0.3489727	-0.1856185	-0.0130077
6.9825201	-0.9143701	-1.2907804	-0.3372248	-0.1970956	-0.1104570	0.3632961	-0.3750233	-0.1866352	-0.0213718
7.0825065	-0.9442907	-1.3218900	-0.3377154	-0.1957074	-0.1143205	0.3513659	-0.3884644	-0.1838555	-0.0425688
7.1825508	-0.9746528	-1.3522744	-0.3378137	-0.1931885	-0.1182360	0.3392914	-0.3807306	-0.1846594	-0.0559470
7.2825111	-1.0021980	-1.3804684	-0.3389062	-0.1909883	-0.1186347	0.3288534	-0.3609370	-0.1909548	-0.0505305
7.3825178	-1.0302368	-1.4080706	-0.3341656	-0.1910660	-0.1134159	0.3204634	-0.3461629	-0.2011384	-0.0226949
7.4825283	-1.0567085	-1.4409933	-0.3419698	-0.1937265	-0.1055000	0.3131252	-0.3476643	-0.2095324	-0.0071655
7.5825334	-1.0841499	-1.4698437	-0.3378816	-0.1969454	-0.0986783	0.3062276	-0.3607554	-0.2094281	-0.0055435
7.6825262	-1.1105063	-1.4998298	-0.3457424	-0.1995371	-0.0945988	0.2999860	-0.3660547	-0.2033927	-0.0232345
7.7825124	-1.1424583	-1.5319469	-0.3409700	-0.2012035	-0.0929516	0.2950156	-0.3612001	-0.1973448	-0.0292468
7.8825779	-1.1704913	-1.5607956	-0.3414045	-0.2025660	-0.0955619	0.2915124	-0.3527230	-0.1980870	-0.0258003
7.9824973	-1.1977521	-1.5892786	-0.3480107	-0.2035767	-0.1013612	0.2883801	-0.3571667	-0.1979803	-0.0226964
8.0825336	-1.2295292	-1.6210985	-0.3399839	-0.2032161	-0.1120913	0.2841186	-0.3763266	-0.2008179	-0.0140387
8.1825052	-1.2613174	-1.6516766	-0.3397207	-0.2007651	-0.1268311	0.2787677	-0.3993813	-0.2041790	-0.0205980
8.2825106	-1.2909325	-1.6794464	-0.3366489	-0.1972195	-0.1397309	0.2733367	-0.4077987	-0.2073812	-0.0229757
8.3825178	-1.3193556	-1.7056750	-0.3309432	-0.1944760	-0.1453790	0.2683556	-0.4058607	-0.2108022	-0.0145269
8.4825295	-1.3548052	-1.7386414	-0.3357176	-0.1936783	-0.1433650	0.2631328	-0.4050229	-0.2144273	-0.0071578
8.5825766	-1.3855301	-1.7663550	-0.3348266	-0.1942881	-0.1355967	0.2569293	-0.4055349	-0.2143449	-0.0016068
8.6825009	-1.4178025	-1.7945244	-0.3308238	-0.1953063	-0.1241308	0.2498064	-0.4066064	-0.2129442	0.0013211
8.7825370	-1.4533387	-1.8268089	-0.3382839	-0.1964435	-0.1118978	0.2424979	-0.4084078	-0.2112842	-0.0046756
8.8825149	-1.4872153	-1.8557330	-0.3394480	-0.1973440	-0.1026638	0.2351076	-0.4138166	-0.2087217	-0.0066201
8.9824983	-1.5254618	-1.8865166	-0.3359670	-0.1968648	-0.0991200	0.2284010	-0.4167649	-0.2056009	-0.0101017
9.0825183	-1.5587828	-1.9149789	-0.3416590	-0.1950000	-0.1007980	0.2241937	-0.4010978	-0.2041790	-0.0179749
9.1824996	-1.5969778	-1.9442871	-0.3331526	-0.1935091	-0.1050676	0.2232898	-0.3846997	-0.2102018	-0.0044918
9.2825318	-1.6286342	-1.9736790	-0.3368104	-0.1936443	-0.1102423	0.2235463	-0.3788112	-0.2181410	0.0049251
9.3825372	-1.6630747	-2.0031139	-0.3310497	-0.1947770	-0.1173032	0.2235792	-0.3857029	-0.2252542	0.0213244
9.4825065	-1.6972130	-2.0362726	-0.3430417	-0.1966251	-0.1275737	0.2223246	-0.4057911	-0.2270083	0.0235441
9.5824952	-1.7322775	-2.0651296	-0.3396585	-0.1992722	-0.1366967	0.2184954	-0.4349785	-0.2242148	0.0316264
9.6825582	-1.7740312	-2.0967672	-0.3407698	-0.2009294	-0.1455366	0.2122173	-0.4617399	-0.2174538	0.0247781
9.7824717	-1.8091493	-2.1240785	-0.3317657	-0.2002436	-0.1542647	0.2055083	-0.4736838	-0.2116360	0.0191902
9.8824783	-1.8490180	-2.1518274	-0.3343416	-0.1985664	-0.1570438	0.2011580	-0.4672167	-0.2074344	0.0037733
9.9824916	-1.8867598	-2.1789754	-0.3343992	-0.1963973	-0.1526166	0.1982961	-0.4517093	-0.2059351	-0.0075331
10.0824914	-1.9234341	-2.2057817	-0.3338058	-0.1939422	-0.1453781	0.1953868	-0.4410061	-0.2087431	-0.0108668
10.1825155	-1.9615448	-2.2338492	-0.3375549	-0.1919857	-0.1374519	0.1908578	-0.4483543	-0.2121925	-0.0102391
10.2824983	-2.0025517	-2.2623228	-0.3371695	-0.1905757	-0.1316860	0.1838581	-0.4674588	-0.2165257	-0.0055452
10.3824794	-2.0460569	-2.2916645	-0.3368974	-0.1897791	-0.1274505	0.1755490	-0.4822313	-0.2208247	0.0009146
10.4825152	-2.0892589	-2.3232213	-0.3433526	-0.1898725	-0.1263864	0.1686097	-0.4796152	-0.2239025	0.0072601
10.5824988	-2.1315363	-2.3511710	-0.3420978	-0.1911280	-0.1288774	0.1652193	-0.4652510	-0.2241464	0.0175168
10.6825247	-2.1752591	-2.3793964	-0.3368307	-0.1935162	-0.1324538	0.1653109	-0.4513455	-0.2222378	0.0273507
10.7824916	-2.2176317	-2.4092367	-0.3407431	-0.1962236	-0.1331952	0.1660799	-0.4498344	-0.2204044	0.0241713
10.8825231	-2.2580005	-2.4366703	-0.3408449	-0.1983835	-0.1296204	0.1652401	-0.4582885	-0.2181217	0.0187313
10.9824978	-2.3014148	-2.4654416	-0.3388896	-0.2000413	-0.1252325	0.1620985	-0.4705557	-0.2151502	0.0196789
11.0825605	-2.3461703	-2.4933337	-0.3408318	-0.2014653	-0.1262908	0.1575860	-0.4868301	-0.2114260	0.0230393
11.1825226	-2.3905109	-2.5201410	-0.3398171	-0.2019728	-0.1343572	0.1528898	-0.4969877	-0.2080972	0.0252154
11.2825132	-2.4362233	-2.5486496	-0.3328171	-0.2015261	-0.1434887	0.1504136	-0.4929331	-0.2075945	0.0261724
11.3825050	-2.4817479	-2.5759593	-0.3331737	-0.2015485	-0.1454865	0.1511313	-0.4719375	-0.2079091	0.0170329
11.4825034	-2.5234501	-2.6019601	-0.3342572	-0.2037904	-0.1360410	0.1540958	-0.4514118	-0.2091866	0.0163066
11.5825106	-2.5637394	-2.6293920	-0.3285487	-0.2076062	-0.1208300	0.1563341	-0.4455724	-0.2098478	0.0257445
11.6825441	-2.6072530	-2.6572287	-0.3259177	-0.2114087	-0.1068696	0.1555763	-0.4671574	-0.2066866	0.0282953
11.7825260	-2.6471571	-2.6789913	-0.3291019	-0.2133768	-0.0994884	0.1517689	-0.4942116	-0.2047061	0.0143817
11.8825280	-2.6928294	-2.7049182	-0.3309078	-0.2128254	-0.0981872	0.1474101	-0.5067788	-0.2053956	-0.0065314
11.9825157	-2.7353279	-2.7286029	-0.3370459	-0.2110773	-0.0977273	0.1455916	-0.4870236	-0.2074493	-0.0277893
12.0825178	-2.7851636	-2.7617532	-0.3348928	-0.2095053	-0.0972973	0.1470222	-0.4547991	-0.2120494	-0.0327185
12.1825062	-2.8258587	-2.7897284	-0.3362614	-0.2086317	-0.0999804	0.1498163	-0.4324175	-0.2173772	-0.0274318
12.2825126	-2.8682484	-2.8201234	-0.3353573	-0.2085911	-0.1072944	0.1519152	-0.4289204	-0.2256679	-0.0109566
12.3824632	-2.9104204	-2.8507908	-0.3348278	-0.2090167	-0.1184598	0.1520568	-0.4367228	-0.2327024	0.0042750
12.4825070	-2.9491122	-2.8762962	-0.3442444	-0.2086522	-0.1325925	0.1507181	-0.4503755	-0.2301798	-0.0020223
12.5825352	-2.9853204	-2.9045436	-0.3376862	-0.2070560	-0.1479619	0.1498134	-0.4499690	-0.2270046	-0.0018798
12.6824594	-3.0225732	-2.9320466	-0.3368678	-0.2054108	-0.1574837	0.1512371	-0.4329232	-0.2243614	-0.0035077
12.7825132	-3.0514716	-2.9553884	-0.3341323	-0.2052469	-0.1570026	0.1543926	-0.4127823	-0.2254206	0.0070994
12.8825014	-3.0919610	-2.9849980	-0.3359322	-0.2069863	-0.1508003	0.1572029	-0.4128782	-0.2293929	0.0186274
12.9825206	-3.1329589	-3.0145922	-0.3368527	-0.2094635	-0.1466559	0.1581401	-0.4278802	-0.2302414	0.0246159
13.0824911	-3.1642471	-3.0405281	-0.3284436	-0.2118988	-0.1461347	0.1575377	-0.4452235	-0.2286949	0.0276555
13.1825462	-3.2130856	-3.0700176	-0.3350340	-0.2136721	-0.1453155	0.1552748	-0.4602648	-0.2233611	0.0135286
13.2824960	-3.2544690	-3.0988510	-0.3338957	-0.2131624	-0.1439543	0.1509067	-0.4710409	-0.2174560	0.0027880
13.3825175	-3.2956261	-3.1273174	-0.3316488	-0.2100248	-0.1419369	0.1448480	-0.4795136	-0.2110368	-0.0054795
13.4825295	-3.3401300	-3.1539492	-0.3366705	-0.2061392	-0.1397032	0.1377707	-0.4902427	-0.2106265	-0.0095060
13.5825446	-3.3866128	-3.1815163	-0.3381077	-0.2029863	-0.1384058	0.1304784	-0.5009562	-0.2149483	-0.0035587
13.6825203	-3.4347533	-3.2102619	-0.3427263	-0.2016107	-0.1379563	0.1238198	-0.5054201	-0.2184711	0.0069670
13.7825500	-3.4809344	-3.2344982	-0.3393092	-0.2018989	-0.1369339	0.1181959	-0.5044032	-0.2205705	0.0224805
13.8825065	-3.5295807	-3.2640018	-0.3450131	-0.2031483	-0.1340767	0.1132739	-0.5043563	-0.2185566	0.0266313
13.9825096	-3.5801097	-3.2886964	-0.3365187	-0.2041089	-0.1303384	0.1082930	-0.5038887	-0.2125501	0.0335303
14.0825180	-3.6269870	-3.3130368	-0.3353591	-0.2039943	-0.1262249	0.1037138	-0.5044348	-0.2077672	0.0311300
14.1827085	-3.6734051	-3.3381476	-0.3399008	-0.2038274	-0.1253338	0.1009473	-0.5014294	-0.2044894	0.0248929
14.2826949	-3.7247290	-3.3631582	-0.3355010	-0.2042494	-0.1273631	0.0997040	-0.4958941	-0.2066374	0.0315416
14.3825341	-3.7738407	-3.3882120	-0.3329339	-0.2050541	-0.1307595	0.0990903	-0.4894988	-0.2115474	0.0359409
14.4825313	-3.8185352	-3.4121663	-0.3335813	-0.2063521	-0.1340598	0.0991473	-0.4796444	-0.2121331	0.0366462
14.5825377	-3.8649996	-3.4366505	-0.3290284	-0.2084602	-0.1323903	0.1001709	-0.4691953	-0.2039130	0.0386621
14.6825572	-3.9114104	-3.4606430	-0.3310257	-0.2117843	-0.1207806	0.1010642	-0.4700657	-0.1990121	0.0281379
14.7825216	-3.9549926	-3.4831687	-0.3317149	-0.2151776	-0.1071984	0.1007066	-0.4783013	-0.2010767	0.0112618
14.8825257	-4.0019749	-3.5079656	-0.3322051	-0.2178107	-0.0964930	0.0997773	-0.4822851	-0.1988321	-0.0088432
14.9824983	-4.0614598	-3.5419020	-0.3276841	-0.2191958	-0.0935728	0.0992091	-0.4815036	-0.1994526	-0.0194289
15.0825185	-4.1195644	-3.5761336	-0.3218438	-0.2205553	-0.0932986	0.1000721	-0.4725564	-0.2020562	-0.0132450
15.1825549	-4.1394527	-3.5815217	-0.3366865	-0.2228413	-0.0903982	0.1020488	-0.4554124	-0.1992207	-0.0188870
15.2825554	-4.1963728	-3.6174095	-0.3307456	-0.2252650	-0.0860224	0.1041927	-0.4478472	-0.2036082	-0.0107305
15.3826829	-4.2357857	-3.6399053	-0.3318019	-0.2265697	-0.0832649	0.1057129	-0.4480719	-0.2070236	-0.0103474
15.4825091	-4.2749452	-3.6616534	-0.3339592	-0.2264009	-0.0808277	0.1064428	-0.4443700	-0.2002546	-0.0130405
15.5825160	-4.3231117	-3.6909933	-0.3317901	-0.2255509	-0.0761148	0.1075352	-0.4372683	-0.1938741	-0.0178519
15.6825152	-4.3683196	-3.7182624	-0.3309504	-0.2247377	-0.0726585	0.1097391	-0.4261954	-0.2022968	-0.0217931
15.7824904	-4.4078906	-3.7431018	-0.3310134	-0.2240053	-0.0747213	0.1127785	-0.4208102	-0.2098778	-0.0206676
15.8825213	-4.4485215	-3.7692560	-0.3307403	-0.2239788	-0.0802252	0.1162350	-0.4154713	-0.2096502	-0.0122672
15.9825091	-4.4732171	-3.7848721	-0.3397776	-0.2253908	-0.0858838	0.1200803	-0.4136011	-0.2048894	-0.0036543
16.0826834	-4.5108603	-3.8090333	-0.3379597	-0.2280365	-0.0932882	0.1236958	-0.4070000	-0.2037444	0.0129949
16.1825876	-4.5503691	-3.8360756	-0.3325287	-0.2311461	-0.1010939	0.1265141	-0.3915084	-0.2052580	0.0271739
16.2824965	-4.5883694	-3.8583383	-0.3317075	-0.2334425	-0.1052046	0.1287169	-0.3822417	-0.2022001	0.0250448
16.3825492	-4.6206405	-3.8839924	-0.3264146	-0.2340918	-0.1019373	0.1301549	-0.3783488	-0.1972848	0.0117177
16.4824794	-4.6578584	-3.9054187	-0.3287554	-0.2328091	-0.0888457	0.1309159	-0.3760163	-0.1905074	-0.0170055
16.5824927	-4.6933990	-3.9303863	-0.3294926	-0.2302015	-0.0696787	0.1307954	-0.3680348	-0.1838073	-0.0402252
16.6825449	-4.7294581	-3.9557822	-0.3304864	-0.2274006	-0.0520707	0.1293829	-0.3684542	-0.1897149	-0.0557803
16.7825032	-4.7587488	-3.9789775	-0.3351965	-0.2249169	-0.0499635	0.1280463	-0.3759072	-0.2068173	-0.0588655
16.8825349	-4.8039744	-4.0091013	-0.3343908	-0.2247473	-0.0441144	0.1275860	-0.3717848	-0.2185082	-0.0430703
16.9825516	-4.8480794	-4.0380988	-0.3298580	-0.2288375	-0.0009352	0.1266629	-0.3155643	-0.2039760	-0.0132948
17.0826291	-4.8869087	-4.0624749	-0.3210425	-0.2500787	0.2426656	0.1176510	-0.1835008	-0.1411160	0.0349762
17.1825329	-4.8354972	-4.0462948	-0.3135822	-0.3166538	0.7263053	0.0762683	-0.0087331	-0.0045063	0.0837243
17.2825275	-5.4111343	-4.2816397	-0.2928540	-0.5277363	1.2039851	-0.1022540	0.0444838	0.1600780	0.1452664
17.3827612	-7.6106878	-5.1769773	-0.2265953	-0.8026700	1.3626646	-0.3335920	-0.1133125	0.2569929	0.2031400
17.4826652	-7.3617373	-5.0464392	-0.2300072	-0.5162574	1.2568951	-0.0049157	-0.0208835	0.3386763	0.1402753
17.5824916	-5.9825459	-4.4654612	-0.3031935	-0.2997955	0.9849314	0.2342099	0.1555767	0.4069076	0.0190466
17.6826970	-5.7633201	-4.3974403	-0.3360305	-0.2176768	0.7157677	0.3283467	0.1742075	0.4132906	-0.0331581
17.7825349	-5.3769963	-4.4296420	-0.3884770	-0.1791682	0.5470542	0.3733664	0.2034634	0.3885554	-0.0560218
17.8824960	-5.0390218	-4.5680431	-0.4460506	-0.1588745	0.4665232	0.4017116	0.2342369	0.3367968	-0.0736285
17.9825198	-5.0298788	-4.5398904	-0.4670787	-0.1464586	0.4370232	0.4296302	0.2579408	0.2761289	-0.0623504
18.0825004	-4.9908330	-4.5405288	-0.4916044	-0.1396369	0.4405867	0.4569591	0.2658234	0.2228288	-0.0564184
18.1826900	-4.9941248	-4.4995118	-0.5077414	-0.1367577	0.4480039	0.4840172	0.2738936	0.1705187	-0.0339924
18.2825039	-4.9670062	-4.4898276	-0.5263597	-0.1356081	0.4464563	0.5111635	0.2774406	0.1091471	-0.0229039
18.3824881	-4.9678213	-4.4539497	-0.5370364	-0.1355153	0.4399618	0.5387335	0.2823161	0.0548947	-0.0047921
18.4827136	-4.9363947	-4.4497577	-0.5518351	-0.1351928	0.4308392	0.5661891	0.2892714	-0.0071841	0.0039217
18.5825544	-4.8946893	-4.4571707	-0.5669654	-0.1334960	0.4238038	0.5925053	0.2876585	-0.0659637	0.0063023
18.6825116	-4.8785714	-4.4360783	-0.5736231	-0.1316662	0.4357376	0.6178476	0.2964069	-0.1150869	0.0230890
18.7825108	-4.8569711	-4.4173304	-0.5793892	-0.1306451	0.4699557	0.6432864	0.3087682	-0.1558263	0.0388379
18.8825093	-4.8121552	-4.4198745	-0.5896536	-0.1307293	0.5061177	0.6681391	0.3233616	-0.1881593	0.0654394
18.9825646	-4.7770410	-4.4123198	-0.5956024	-0.1335065	0.5344498	0.6909462	0.3345126	-0.2118382	0.1015804
19.0825321	-4.7680335	-4.3842211	-0.5922198	-0.1383305	0.5624860	0.7116508	0.3337106	-0.2391693	0.1512961
19.1826573	-4.7087950	-4.3814386	-0.5960462	-0.1452774	0.5697152	0.7287826	0.3368589	-0.2636832	0.1867312
19.2825275	-4.6577638	-4.3736503	-0.5958466	-0.1543022	0.5498087	0.7436110	0.3473043	-0.2804956	0.2102346
19.3825472	-4.6141664	-4.3604160	-0.5902090	-0.1643657	0.5118926	0.7564133	0.3573364	-0.2926559	0.2264977
19.4825290	-4.5365683	-4.3511606	-0.5953579	-0.1758191	0.4633701	0.7679451	0.3814055	-0.2955839	0.2296455
19.5824809	-4.4889757	-4.3336834	-0.5830031	-0.1884232	0.4304414	0.7790316	0.4060507	-0.2929752	0.2468574
19.6826929	-4.4370072	-4.3211178	-0.5656591	-0.2022157	0.4328262	0.7905909	0.4325474	-0.2956237	0.2777321
19.7825416	-4.3894970	-4.2776163	-0.5604841	-0.2157982	0.4375767	0.8023062	0.4476468	-0.3013848	0.3110864
19.8824701	-4.3333482	-4.2425772	-0.5460514	-0.2274167	0.4273895	0.8155774	0.4565174	-0.3066255	0.3468217
19.9825316	-4.2817269	-4.2145661	-0.5290055	-0.2378128	0.4105116	0.8279972	0.4676379	-0.3103225	0.3628822
20.0826980	-4.2291239	-4.1743381	-0.5100375	-0.2463040	0.3788066	0.8420048	0.4823418	-0.3049566	0.3634272
20.1824934	-4.1938456	-4.1058320	-0.4950310	-0.2528817	0.3422033	0.8566102	0.4975437	-0.2860356	0.3583017
20.2824988	-4.1767422	-4.0298003	-0.4808110	-0.2603661	0.3187385	0.8705968	0.5063806	-0.2747604	0.3700258
20.3825247	-4.1595730	-3.9518449	-0.4642519	-0.2679740	0.3039515	0.8840577	0.5275999	-0.2666308	0.3594963
20.4824993	-4.0931572	-3.9260144	-0.4376871	-0.2758098	0.2965445	0.8975245	0.5540283	-0.2642015	0.3537542
20.5825165	-4.0815981	-3.8398954	-0.4219389	-0.2834933	0.2899123	0.9104284	0.5608753	-0.2533958	0.3736155
20.6825019	-4.0214405	-3.8045567	-0.3932885	-0.2910885	0.2828820	0.9222058	0.5583291	-0.2544107	0.4035290
20.7824796	-3.9893489	-3.7355133	-0.3674205	-0.2978877	0.2745916	0.9325806	0.5654750	-0.2510832	0.4190518
20.8825848	-4.0330499	-3.5752975	-0.3548798	-0.3039129	0.2695076	0.9414115	0.5733907	-0.2300518	0.3981061
20.9824929	-4.0095145	-3.5029027	-0.3334281	-0.3074257	0.2615979	0.9498218	0.5687370	-0.2317864	0.3631112
21.0825014	-3.9960070	-3.4162288	-0.3159343	-0.3062633	0.2399634	0.9595916	0.5527142	-0.2443092	0.3148119
21.1824673	-4.0071732	-3.3130487	-0.3060189	-0.2987816	0.2061595	0.9682609	0.5466862	-0.2456564	0.2447238
21.2825009	-3.9557064	-3.2775278	-0.2909149	-0.2887869	0.2176528	0.9716106	0.5805526	-0.2373302	0.1712750
21.3825178	-3.9796127	-3.1865335	-0.3024496	-0.2764859	0.2681461	0.9737328	0.6227193	-0.2074162	0.0773645
21.4825249	-3.9311019	-3.1405717	-0.3116562	-0.2622728	0.3170041	0.9790084	0.6546925	-0.1703184	0.0176312
21.5825382	-3.8652458	-3.1300366	-0.3149618	-0.2490315	0.3531575	0.9873780	0.6540161	-0.1512964	0.0004743
21.6824881	-3.8194542	-3.0859363	-0.3338684	-0.2366214	0.3519179	0.9969436	0.6270707	-0.1365745	-0.0046499
21.7825103	-3.7826267	-3.0373731	-0.3464762	-0.2283460	0.3249297	1.0054875	0.5889161	-0.1287852	0.0298735
21.8825260	-3.7350037	-3.0121137	-0.3624287	-0.2249236	0.2972939	1.0124837	0.5670306	-0.1200371	0.0674980
21.9825293	-3.7065940	-2.9356461	-0.3574573	-0.2265511	0.2730383	1.0182698	0.5537833	-0.1067272	0.1238744
22.0825096	-3.6700567	-2.8928015	-0.3570715	-0.2314715	0.2563590	1.0242543	0.5491827	-0.0971660	0.1712534
22.1825014	-3.6356996	-2.8534599	-0.3534162	-0.2362393	0.2282080	1.0304432	0.5505523	-0.0933492	0.2105214
22.2825298	-3.6159370	-2.8353951	-0.3554217	-0.2416762	0.2066863	1.0371384	0.5648800	-0.0880224	0.2315334
22.3825132	-3.5827459	-2.7837840	-0.3420458	-0.2473935	0.1917472	1.0437273	0.5784450	-0.0839323	0.2512066
22.4825137	-3.5707479	-2.7402035	-0.3348278	-0.2518589	0.1701917	1.0494679	0.5740085	-0.0833296	0.2557220
22.5824806	-3.5652963	-2.6973241	-0.3265570	-0.2569032	0.1514077	1.0534042	0.5746673	-0.0812827	0.2519282
22.6825265	-3.5449932	-2.6465000	-0.3133219	-0.2587094	0.1305776	1.0577771	0.5931139	-0.0706128	0.2262887
22.7825224	-3.5702797	-2.6002309	-0.3154392	-0.2562652	0.1058468	1.0628880	0.6171426	-0.0505060	0.1649353
22.8825564	-3.5807951	-2.5561438	-0.3173028	-0.2522644	0.0978571	1.0675091	0.6412387	-0.0231502	0.1145754
22.9825408	-3.5680874	-2.5053711	-0.3181765	-0.2480197	0.1049234	1.0714668	0.6547440	0.0004449	0.0932916
23.0824850	-3.5818101	-2.4652476	-0.3297332	-0.2458107	0.1247166	1.0746990	0.6667123	0.0181387	0.0846081
23.1825157	-3.5656735	-2.4128615	-0.3353075	-0.2459554	0.1560718	1.0777303	0.6890143	0.0320677	0.0935516
23.2827146	-3.5322945	-2.3455864	-0.3353151	-0.2494405	0.2024385	1.0802808	0.7057226	0.0403862	0.1142711
23.3826977	-3.5041148	-2.2787921	-0.3380609	-0.2550212	0.2425870	1.0832913	0.7031993	0.0418725	0.1355974
23.4825132	-3.4788464	-2.2200043	-0.3345334	-0.2618174	0.2623313	1.0865778	0.6910316	0.0358236	0.1775875