# Time	Input
-4.6999240	0.0000000
-4.5999465	0.0000000
-4.4999291	0.0000000
-4.4000197	0.0000000
-4.2999475	0.0000000
-4.1994542	0.0000000
-4.0999214	0.0000000
-3.9999104	0.0000000
-3.8998292	0.0000000
-3.7996270	0.0000000
-3.6998618	0.0000000
-3.5999304	0.0000000
-3.4998830	0.0000000
-3.3997652	0.0000000
-3.2999429	0.0000000
-3.1999378	0.0000000
-3.1000806	0.0000000
-2.9996595	0.0000000
-2.8998751	0.0000000
-2.7999148	0.0000000
-2.6999859	0.0000000
-2.5999534	0.0000000
-2.4999864	0.0000000
-2.3999644	0.0000000
-2.2999834	0.0000000
-2.2000335	0.0000000
-2.0998958	0.0000000
-1.9999939	0.0000000
-1.8998533	0.0000000
-1.7999688	0.0000000
-1.6999119	0.0000000
-1.5999931	0.0000000
-1.4998815	0.0000000
-1.3999980	0.0000000
-1.2997233	0.0000000
-1.1999340	0.0000000
-1.0999416	0.0000000
-0.9999444	0.0000000
-0.8998989	0.0000000
-0.7999273	0.0000000
-0.7000013	0.0000000
-0.5998034	0.0000000
-0.4999642	0.0000000
-0.3998172	0.0000000
-0.2999813	0.0000000
-0.1998769	0.0000000
-0.0999826	0.0000000
0.0000000	-0.1291870
0.1001377	0.5713670
0.2000520	0.9397190
0.3001372	2.3463633
0.4001482	5.6999149
0.5000041	8.1680632
0.6000742	9.9286098
0.6999834	10.9610348
0.8000691	11.1523113
0.9000225	10.7801886
1.0003069	10.5387793
1.1002112	9.4998598
1.2000448	7.9943857
1.2999980	7.1091051
1.4000852	6.4490614
1.5001482	6.8558960
1.6001436	7.6446638
1.7000609	8.4858236
1.8000758	8.7365875
1.9002010	9.0864038
2.0000640	9.4697342
2.1000530	9.3952913
2.2001782	8.4109497
2.2999777	7.8203392
2.4000374	7.5874472
2.5000328	8.4824228
2.6000100	9.9616547
2.7000553	10.8914728
2.8000220	10.6115398
2.9000607	10.0195074
2.9999700	9.4330282
3.1001078	9.4896889
3.2001408	9.6506958
3.3000653	9.6390448
3.4000517	9.1359997
3.5001964	8.7233953
3.6000379	8.1594868
3.7003203	7.3238525
3.8000684	6.4172444
3.9000046	6.0513105
4.0000963	5.7811885
4.1001329	5.7841377
4.2000486	6.1312265
4.3000996	6.3966856
4.4000950	6.8935061
4.5001362	7.9029560
4.6000420	8.3808994
4.7000896	8.2252111
4.8001674	7.9215722
4.9000704	7.4825521
5.0003052	6.9899659
5.1001684	6.9341431
5.2001869	7.5124741
5.3000993	7.9176540
5.4001060	7.5824385
5.5000374	7.1225419
5.5999821	6.6633363
5.6999913	6.2196212
5.8002744	5.8844213
5.9002529	5.7316370
6.0001841	4.6179485
6.1001917	4.0459776
6.2000704	4.2988820
6.3001431	4.9468970
6.4000750	5.5010853
6.5000358	6.0765872
6.6000515	6.2223153
6.7001684	6.1370759
6.8000660	5.8864913
6.9000161	5.8526769
7.0001728	5.6301870
7.1000520	5.1012583
7.2002755	4.3515911
7.2999613	3.7860510
7.4000438	3.7462366
7.5002332	3.8069332
7.6002043	4.0171623
7.7001027	4.3311224
7.8001702	4.8223457
7.9001224	5.1666842
8.0001242	5.2313042
8.1000276	5.4460263
8.2001810	5.6371412
8.3000072	6.1904516
8.4002921	7.0092864
8.5000123	7.3114209
8.6001196	7.8748374
8.7000138	8.2090483
8.8000927	8.0268173
8.9000028	7.6591549
9.0001828	7.2791152
9.1000609	7.5532823
9.2000289	7.5841651
9.3000486	8.0350494
9.4001024	7.8282199
9.5001068	7.0221586
9.6000187	6.2794523
9.7000888	5.8489203
9.8002627	5.9024119
9.9001272	6.3053894
10.0002212	7.0550766
10.1000563	7.3896756
10.2000090	7.4581242
10.2999995	7.2164874
10.4000346	7.0767298
10.5000991	7.1158133
10.6001211	7.5954204
10.7000105	8.0881987
10.8001336	8.6118078
10.9000003	9.0005169
11.0001731	9.2635651
11.1000440	9.2940283
11.2001119	9.3994017
11.3000658	8.8771429
11.4000550	8.3873425
11.5000402	8.2322111
11.6000737	8.2070837
11.7001580	8.4103909
11.8001577	8.3611746
11.9000031	8.1765585
12.0000468	8.1080141
12.1000604	8.3790236
12.2000486	8.4818516
12.3001149	8.4757204
12.4000899	8.5403719
12.4999803	8.8041458
12.5999941	9.3164682
12.7001441	9.7961245
12.8000187	10.1333895
12.9000046	10.3195868
13.0001262	10.1863165
13.1002821	10.1988297
13.2001185	10.0270157
13.3000410	9.6452017
13.4003904	9.2226143
13.5003105	8.9076824
13.6001500	8.5424843
13.7001779	8.5993328
13.7999729	9.1336002
13.9002716	9.9826727
13.9999444	10.5530109
14.1000855	11.0271320
14.2000489	11.7120190
14.2999534	11.8316431
14.4000543	11.5329027
14.5001528	11.2081594
14.5999967	10.8684692
14.7001710	10.6337767
14.8000975	10.5843115
14.9001106	10.4766026
15.0000184	10.5430412
15.1002337	10.5888491
15.2001014	10.7584209
15.3000776	11.0260544
15.4001119	11.4834938
15.5001894	11.6902409
15.6000507	11.6891832
15.7001710	11.8244696
15.8001183	11.7162933
15.9001275	11.4642696
16.0002650	11.2397022
16.1000707	11.2204008
16.2001477	11.2732029
16.2999698	11.2554369
16.4002035	11.2459450
16.5001152	11.3110476
16.6000054	11.1777782
16.7002324	11.0918207
16.8000033	11.3409357
16.9000159	11.9197540
17.0001690	12.5867367
17.1000287	13.2116337
17.2001108	14.3451452
17.3000599	15.1192274
17.4001247	15.4294157
17.5000829	15.0094995
17.6000745	14.3394938
17.7001654	13.3779068
17.8000883	12.5716305
17.9000110	12.2111845
18.0002619	12.3648624
18.1001137	12.6275444
18.2000059	12.8030586
18.3000023	13.0167122
18.3999962	13.4457302
18.5000456	14.1210709
18.5999757	14.6321878
18.7001943	14.8749208
18.8000719	14.9949675
18.9002045	14.9685869
19.0001057	14.8640385
19.1001546	14.8641710
19.2001848	15.0586834
19.3000366	14.7899199
19.4000737	14.3988047
19.5001029	14.1567850
19.6000968	14.1215067
19.7001830	14.5510817
19.8000105	15.1993217
19.9002726	15.5907536
20.0000020	15.8669815
20.1001042	16.2914734
20.2001600	16.3166542
20.2999537	16.0110912
20.4000159	15.4735394
20.5003287	14.7897205
20.6002737	14.5286026
20.7000358	14.6176863
20.8001359	14.4585867
20.9001859	14.3785286
21.0001165	14.6512232
21.1001098	15.4781351
21.2001180	17.0835228
21.2999951	18.7966900
21.4000806	20.1117039
21.5001651	20.9010277
21.6000371	20.4895344
21.7001482	19.7911644
21.8003197	18.4523735
21.9000269	17.5339394
22.0000522	16.9047909
22.1001966	17.3657169
22.2000182	17.4647655
22.3000522	16.9723148
22.4001807	16.2739811
22.5000722	15.9501953
22.6001746	16.1066837
22.7001574	16.5953579
22.7999521	17.5665512
22.8999946	18.7643681
23.0002299	19.8002338
23.1002739	20.4419804
23.2001567	20.9303494
23.3000054	21.6267872
23.4000730	22.0191631
23.5002522	22.2636967
23.6001597	22.1873074
23.7002191	21.6398506
23.7999826	20.1303062
23.9001539	18.2820358
24.0000415	16.7141590
24.1003512	16.1319637
24.2001178	16.5882969
24.3000330	18.0664864
24.4000855	20.1923180
24.5001692	21.7571259
24.5999785	22.6612339
24.7001331	22.6539803
24.8000428	23.1879959
24.9000143	23.4528084
25.0000876	23.6181374
25.1000509	23.6927547
25.2000333	24.4384422
25.2999757	25.1508007
25.3999777	25.5988789
25.5000489	26.0310459
25.6000445	25.7422829
25.7000758	25.6976948
25.8000535	25.4433212
25.9000940	25.7011566
26.0000000	25.7657070
26.1000486	25.4915333
26.2000847	25.3666668
26.3000113	25.3649940
26.4001526	25.6714897
26.5001068	25.5723381
26.5999941	25.2628078
26.7000074	26.0140648
26.8000189	26.7096825
26.9000468	27.1808834
27.0000804	27.6916885
27.1001216	27.4094200
27.2000320	27.2666359
27.3001787	28.0572910
27.4001987	29.7152958
27.5001257	31.6230736
27.6000778	32.8720055
27.7000346	32.7471504
27.8000351	31.8618832
27.9000146	30.3790741
28.0001006	29.0867596
28.1001518	28.8373470
28.2000545	29.4823494
28.3000456	30.3971481
28.4000077	31.2683048
28.5002232	32.1184425
28.6000238	32.9650688
28.7000451	33.5862999
28.7999703	33.5879593
28.9000177	32.2531395
29.0000668	31.1251411
29.1000492	29.9110489
29.2000650	29.6674271
29.3000120	30.2234039
29.4001848	31.0081749
29.5001329	32.2737999
29.6001710	33.4498825
29.7000174	34.3325119
29.8000963	35.0000000
29.9000195	35.0000000
30.0000069	35.0000000
30.1000466	35.0000000
30.2000742	35.0000000
30.3002412	35.0000000
30.3999941	35.0000000
30.5001508	35.0000000
30.6000422	35.0000000
30.7000571	35.0000000
30.8000425	35.0000000
30.9001239	35.0000000
30.9999665	35.0000000
31.1001108	35.0000000
31.2000735	35.0000000
31.3000535	35.0000000
31.4002432	35.0000000
31.5002762	35.0000000
31.6002053	35.0000000
31.7001920	35.0000000
31.8000077	35.0000000
31.9000504	35.0000000
32.0000041	35.0000000
32.1002007	35.0000000
32.2000379	35.0000000
32.2999985	35.0000000
32.4001080	35.0000000
32.5001185	35.0000000
32.6001787	35.0000000
32.7001295	35.0000000
32.8000207	35.0000000
32.9000187	35.0000000
33.0000617	35.0000000
33.1000453	35.0000000
33.2000806	35.0000000
33.2999534	35.0000000
33.4000128	35.0000000
33.5000901	35.0000000
33.5999980	35.0000000
33.7002138	35.0000000
33.8000233	35.0000000
33.9001219	35.0000000
34.0000855	35.0000000
34.1000737	35.0000000
34.2001580	35.0000000
34.3000282	35.0000000
34.3999798	35.0000000
34.5000963	35.0000000
34.6001411	35.0000000
34.7000876	35.0000000
34.7999677	35.0000000
34.9000689	35.0000000
35.0005729	35.0000000
35.1001352	35.0000000
35.1999813	35.0000000
35.3000323	35.0000000
35.4000852	35.0000000
35.5000166	35.0000000
35.6001544	35.0000000
35.6999995	35.0000000
35.7999762	35.0000000
35.9000865	35.0000000
35.9999772	35.0000000
36.1001531	35.0000000
36.2002537	35.0000000
36.3000689	35.0000000
36.4000740	35.0000000
36.5000476	35.0000000
36.6000228	35.0000000
36.7000310	35.0000000
36.8000138	35.0000000
36.9000620	35.0000000
37.0000069	35.0000000
37.1000804	35.0000000
37.2000755	35.0000000
37.3001039	35.0000000
37.4003238	35.0000000
37.5000914	35.0000000
37.6000358	35.0000000
37.7001787	35.0000000
37.8000072	35.0000000
37.9000289	35.0000000
38.0001810	35.0000000
38.1001905	35.0000000
38.2001843	35.0000000
38.3001126	35.0000000
38.4001436	35.0000000
38.5001876	35.0000000
38.6000200	35.0000000
38.7000947	35.0000000
38.8001042	35.0000000
38.9001372	35.0000000
38.9999775	35.0000000
39.1000932	35.0000000
39.2001329	35.0000000
39.3000614	35.0000000
39.4001249	35.0000000
39.5001439	35.0000000
39.6000727	35.0000000
39.7001482	35.0000000
39.8001300	35.0000000
39.9002691	35.0000000
40.0002143	35.0000000
40.1001293	35.0000000
40.2001418	35.0000000
40.3000159	35.0000000
40.4000886	35.0000000
40.5000241	35.0000000
40.6000195	35.0000000
40.7001221	35.0000000
40.8000525	35.0000000
40.9001254	35.0000000
41.0001157	35.0000000
41.0999639	35.0000000
41.2000256	35.0000000
41.3003576	35.0000000
41.4001856	35.0000000
41.5003251	35.0000000
41.5999785	35.0000000
41.7001096	35.0000000
41.8003315	35.0000000
41.9002243	35.0000000
42.0001444	35.0000000
42.1002322	35.0000000
42.2001618	35.0000000
42.3000755	35.0000000
42.3999875	35.0000000
42.5001807	35.0000000
42.6001815	35.0000000
42.7000799	35.0000000
42.8002732	35.0000000
42.9001316	35.0000000
43.0000919	35.0000000
43.1000840	35.0000000
43.2001746	35.0000000
43.3001331	35.0000000
43.4000236	35.0000000
43.5000932	35.0000000
43.6000737	35.0000000
43.7000888	35.0000000
43.8000468	35.0000000
43.9001011	35.0000000
44.0001293	35.0000000
44.1002056	35.0000000
44.2001485	35.0000000
44.3002097	35.0000000
44.3999831	35.0000000
44.5001236	35.0000000
44.6000182	35.0000000
44.7000522	35.0000000
44.8001492	35.0000000
44.9002117	35.0000000
45.0000422	35.0000000
45.1001633	35.0000000
45.2000876	35.0000000
45.3000251	35.0000000
45.4002068	35.0000000
45.4999844	35.0000000
45.6000241	35.0000000
45.7000433	35.0000000
45.8001221	35.0000000
45.9001009	35.0000000
46.0002737	35.0000000
46.1000430	35.0000000
46.2001001	35.0000000
46.3000399	35.0000000
46.3999969	35.0000000
46.5000197	35.0000000
46.5999813	35.0000000
46.7002217	35.0000000
46.8000504	35.0000000
46.9000737	35.0000000
47.0000663	35.0000000
47.1000282	35.0000000
47.2000809	35.0000000
47.3000346	35.0000000
47.4000479	35.0000000
47.5002895	35.0000000
47.6001477	35.0000000
47.6999560	35.0000000
47.8000212	35.0000000
47.9001539	35.0000000
48.0000118	35.0000000
48.1002022	35.0000000
48.2002289	35.0000000
48.3000320	35.0000000
48.4001057	35.0000000
48.5001277	35.0000000
48.6002086	35.0000000
48.7001308	35.0000000
48.8001267	35.0000000
48.9000015	35.0000000
49.0001984	35.0000000
49.1000676	35.0000000
49.2000530	35.0000000
49.3000594	35.0000000
49.4000942	35.0000000
49.5001367	35.0000000
49.6000660	35.0000000
49.7000709	35.0000000
49.8001667	35.0000000
49.9000038	35.0000000
50.0000883	35.0000000
50.1001976	35.0000000
50.2000896	35.0000000
50.3000681	35.0000000
50.4000230	35.0000000
50.5001224	35.0000000
50.5999534	35.0000000
50.7002179	35.0000000
50.8001275	35.0000000
50.9000445	35.0000000
51.0001600	35.0000000
51.1001062	35.0000000
51.2000596	35.0000000
51.3003988	35.0000000
51.4000084	35.0000000
51.5001741	35.0000000
51.6000806	35.0000000
51.7000271	35.0000000
51.8001257	35.0000000
51.9000515	35.0000000
52.0001408	35.0000000
52.1000138	35.0000000
52.2000975	35.0000000
52.2999713	35.0000000
52.4000320	35.0000000
52.5000458	35.0000000
52.6002893	35.0000000
52.7000448	35.0000000
52.8000837	35.0000000
52.9001216	35.0000000
53.0000509	35.0000000
53.1001569	35.0000000
53.2001795	35.0000000
53.3001203	35.0000000
53.4000760	35.0000000
53.5000358	35.0000000
53.6002706	35.0000000
53.7000220	35.0000000
53.8001372	35.0000000
53.9001728	35.0000000
53.9999982	35.0000000
54.1000402	35.0000000
54.2000835	35.0000000
54.3001313	35.0000000
54.4001823	35.0000000
54.5001377	35.0000000
54.6001103	35.0000000
54.7001766	35.0000000
54.8000440	35.0000000
54.9001119	35.0000000
55.0002225	35.0000000
55.1000878	35.0000000
55.2000550	35.0000000
55.3000845	35.0000000
55.4001349	35.0000000
55.5000476	35.0000000
55.6001833	35.0000000
55.7000701	35.0000000
55.8000259	35.0000000
55.9000840	35.0000000
56.0002317	35.0000000
72.0044956	35.0000000
72.0044987	35.0000000
72.0045087	35.0000000
72.0045202	35.0000000
72.0045312	35.0000000
72.0045427	35.0000000
72.0045568	35.0000000
72.0045606	35.0000000
72.0045650	35.0000000
72.0045678	0.0000000
72.0045763	0.0000000
72.0045791	0.0000000
72.0045908	0.0000000
72.0046021	0.0000000
72.0046139	0.0000000
72.0046252	0.0000000
72.0046356	0.0000000
72.0046395	0.0000000
72.0046423	0.0000000
72.0046528	0.0000000
72.0046561	0.0000000
72.0046592	0.0000000
72.0046707	0.0000000
72.0046822	0.0000000
72.0046932	0.0000000
72.0047045	0.0000000
72.0047153	0.0000000
72.0047194	0.0000000
72.0047222	0.0000000
72.0047291	0.0000000
72.0047334	0.0000000
72.0047483	0.0000000
72.0047514	0.0000000
72.0047585	0.0000000
72.0047777	0.0000000
72.0047900	0.0000000
72.0048013	0.0000000
72.0048049	0.0000000
72.0048077	0.0000000
72.0048177	0.0000000
72.0048205	0.0000000
72.0048305	0.0000000
72.0048338	0.0000000
72.0048440	0.0000000
72.0048553	0.0000000
72.0048668	0.0000000
72.0048778	0.0000000
72.0048812	0.0000000
72.0049062	0.0000000
72.0049198	0.0000000
72.0049229	0.0000000
72.0049321	0.0000000
72.0049352	0.0000000
72.0049452	0.0000000
72.0049567	0.0000000
72.0049682	0.0000000
72.0049720	0.0000000
72.0049751	0.0000000
72.0049815	0.0000000
72.0049930	0.0000000
72.0049961	0.0000000
72.0050051	0.0000000
72.0050127	0.0000000
72.0050161	0.0000000
72.0050260	0.0000000
72.0050378	0.0000000
72.0050414	0.0000000
72.0050445	0.0000000
72.0050509	0.0000000
72.0050629	0.0000000
72.0050662	0.0000000
72.0050755	0.0000000
72.0050867	0.0000000
72.0050898	0.0000000
72.0050993	0.0000000
72.0051159	0.0000000
72.0051564	0.0000000
72.0051604	0.0000000
72.0073633	0.0000000
72.0073815	0.0000000
72.0073853	0.0000000
72.0074102	0.0000000
72.0074230	0.0000000
72.0074263	0.0000000
72.0074365	0.0000000
72.0074486	0.0000000
72.0074522	0.0000000
72.0074557	0.0000000
72.0074588	0.0000000
72.0074627	0.0000000
72.0074657	0.0000000
72.0074790	0.0000000
72.0074908	0.0000000
72.0075016	0.0000000
72.0075052	0.0000000
72.0075139	0.0000000
72.0075169	0.0000000
72.0075264	0.0000000
72.0075300	0.0000000
72.0075331	0.0000000
72.0075461	0.0000000
72.0075489	0.0000000
72.0075615	0.0000000
72.0075648	0.0000000
72.0075745	0.0000000
72.0075907	0.0000000
72.0076022	0.0000000
72.0076055	0.0000000
72.0076134	0.0000000
72.0076178	0.0000000
72.0076260	0.0000000
72.0076372	0.0000000
72.0076413	0.0000000
72.0076442	0.0000000
72.0076500	0.0000000
72.0076616	0.0000000
72.0076646	0.0000000
72.0076736	0.0000000
72.0076767	0.0000000
72.0076856	0.0000000
72.0076966	0.0000000
72.0077005	0.0000000
72.0077036	0.0000000
72.0077133	0.0000000
72.0077243	0.0000000
72.0077271	0.0000000
72.0077363	0.0000000
72.0077396	0.0000000
72.0077481	0.0000000
72.0077591	0.0000000
72.0077627	0.0000000
72.0077652	0.0000000
72.0077752	0.0000000
72.0077870	0.0000000
72.0077903	0.0000000
72.0077993	0.0000000
72.0078024	0.0000000
72.0078118	0.0000000
72.0078228	0.0000000
72.0078269	0.0000000
72.0078303	0.0000000
72.0078423	0.0000000
72.0078451	0.0000000
72.0078572	0.0000000
72.0078602	0.0000000
72.0078712	0.0000000
72.0078746	0.0000000
72.0078840	0.0000000
72.0078945	0.0000000
72.0079055	0.0000000
72.0079086	0.0000000
72.0079178	0.0000000
72.0079206	0.0000000
72.0079296	0.0000000
72.0079414	0.0000000
72.0079450	0.0000000
72.0079475	0.0000000
72.0079572	0.0000000
72.0079680	0.0000000
72.0079716	0.0000000
72.0609339	0.0000000
