# Time	Velocity	Pitch	Yaw
-4.6779167	0.0000000	0.0000000	0.0000000
-4.5778327	0.0000000	0.0000000	0.0000000
-4.4778537	0.0000000	0.0000000	0.0000000
-4.3778015	0.0000000	0.0000000	0.0000000
-4.2778163	0.0000000	0.0000000	0.0000000
-4.1776435	0.0000000	0.0000000	0.0000000
-4.0777964	0.0000000	0.0000000	0.0000000
-3.9778051	0.0000000	0.0000000	0.0000000
-3.8777984	0.0000000	0.0000000	0.0000000
-3.7776586	0.0000000	0.0000000	0.0000000
-3.6777756	0.0000000	0.0000000	0.0000000
-3.5779377	0.0000000	0.0000000	0.0000000
-3.4779308	0.0000000	0.0000000	0.0000000
-3.3777836	0.0000000	0.0000000	0.0000000
-3.2778061	0.0000000	0.0000000	0.0000000
-3.1778309	0.0000000	0.0000000	0.0000000
-3.0777462	0.0000000	0.0000000	0.0000000
-2.9777546	0.0000000	0.0000000	0.0000000
-2.8778058	0.0000000	0.0000000	0.0000000
-2.7778030	0.0000000	0.0000000	0.0000000
-2.6778056	0.0000000	0.0000000	0.0000000
-2.5778806	0.0000000	0.0000000	0.0000000
-2.4778852	0.0000000	0.0000000	0.0000000
-2.3777679	0.0000000	0.0000000	0.0000000
-2.2778322	0.0000000	0.0000000	0.0000000
-2.1778038	0.0000000	0.0000000	0.0000000
-2.0778117	0.0000000	0.0000000	0.0000000
-1.9778519	0.0000000	0.0000000	0.0000000
-1.8779750	0.0000000	0.0000000	0.0000000
-1.7778918	0.0000000	0.0000000	0.0000000
-1.6778680	0.0000000	0.0000000	0.0000000
-1.5778066	0.0000000	0.0000000	0.0000000
-1.4777882	0.0000000	0.0000000	0.0000000
-1.3778429	0.0000000	0.0000000	0.0000000
-1.2778437	0.0000000	0.0000000	0.0000000
-1.1778849	0.0000000	0.0000000	0.0000000
-1.0777549	0.0000000	0.0000000	0.0000000
-0.9777992	0.0000000	0.0000000	0.0000000
-0.8778033	0.0000000	0.0000000	0.0000000
-0.7778079	0.0000000	0.0000000	0.0000000
-0.6778634	0.0000000	0.0000000	0.0000000
-0.5778012	0.0000000	0.0000000	0.0000000
-0.4778227	0.0000000	0.0000000	0.0000000
-0.3778964	0.0000000	0.0000000	0.0000000
-0.2778657	0.0000000	0.0000000	0.0000000
-0.1777920	0.0000000	0.0000000	0.0000000
-0.0776968	0.0018343	0.0000000	0.6000000
0.0222912	0.0047347	0.0000000	0.6000000
0.1221609	0.0076616	0.0000000	0.6000000
0.2223206	0.0106267	0.0000000	0.6000000
0.3222779	0.0136219	0.0000000	0.6000000
0.4222415	0.0166424	0.0000000	0.6000000
0.5222807	0.0196966	0.0000000	0.6000000
0.6222789	0.0227748	0.0000000	0.6000000
0.7222953	0.0258819	0.0000000	0.6000000
0.8222792	0.0290108	0.0000000	0.6000000
0.9221955	0.0321610	0.0000000	0.6000000
1.0223703	0.0353391	0.0000000	0.6000000
1.1223173	0.0385353	0.0000000	0.6000000
1.2222858	0.0417502	0.0000000	0.6000000
1.3222426	0.0449831	0.0000000	0.6000000
1.4223140	0.0482360	0.0000000	0.6000000
1.5222497	0.0514976	0.0000000	0.6000000
1.6222016	0.0547786	0.0000000	0.6000000
1.7221524	0.0580717	0.0000000	0.6000000
1.8222973	0.0613808	0.0000000	0.6000000
1.9222536	0.0646958	0.0000000	0.6000000
2.0223030	0.0680176	0.0000000	0.6000000
2.1221158	0.0713498	0.0000000	0.6000000
2.2223493	0.0746926	0.0000000	0.6000000
2.3222807	0.0780362	0.0000000	0.6000000
2.4222182	0.0813849	0.0000000	0.6000000
2.5222441	0.0847368	0.0000000	0.6000000
2.6223299	0.0880907	0.0000000	0.6000000
2.7221652	0.0914405	0.0000000	0.6000000
2.8223624	0.0947945	0.0000000	0.6000000
2.9223409	0.0981441	0.0000000	0.6000000
3.0222700	0.1014892	0.0000000	0.6000000
3.1221594	0.1048294	0.0000000	0.6000000
3.2222144	0.1081638	0.0000000	0.6000000
3.3222502	0.1114915	0.0000000	0.6000000
3.4222822	0.1148082	0.0000000	0.6000000
3.5222991	0.1181187	0.0000000	0.6000000
3.6222326	0.1214133	0.0000000	0.6000000
3.7222472	0.1246988	0.0000000	0.6000000
3.8222364	0.1279715	0.0000000	0.6000000
3.9222449	0.1312242	0.0000000	0.6000000
4.0223439	0.1344641	0.0000000	0.6000000
4.1222170	0.1376844	0.0000000	0.6000000
4.2223020	0.1408849	0.0000000	0.6000000
4.3222479	0.1440666	0.0000000	0.6000000
4.4223954	0.1472274	0.0000000	0.6000000
4.5223350	0.1503600	0.0000000	0.6000000
4.6223137	0.1534723	0.0000000	0.6000000
4.7222659	0.1565599	0.0000000	0.6000000
4.8223209	0.1596223	0.0000000	0.6000000
4.9222572	0.1626521	0.0000000	0.6000000
5.0222612	0.1656556	0.0000000	0.6000000
5.1223350	0.1686259	0.0000000	0.6000000
5.2223171	0.1715651	0.0000000	0.6000000
5.3222820	0.1744711	0.0000000	0.6000000
5.4222845	0.1773432	0.0000000	0.6000000
5.5223570	0.1801798	0.0000000	0.6000000
5.6221414	0.1829764	0.0000000	0.6000000
5.7223212	0.1857395	0.0000000	0.6000000
5.8222001	0.1884587	0.0000000	0.6000000
5.9222298	0.1911370	0.0000000	0.6000000
6.0222794	0.1937785	0.0000000	0.6000000
6.1223007	0.1963713	0.0000000	0.6000000
6.2222467	0.1989196	0.0000000	0.6000000
6.3222853	0.2014218	0.0000000	0.6000000
6.4222597	0.2038774	0.0000000	0.6000000
6.5221862	0.2062845	0.0000000	0.6000000
6.6223206	0.2086435	0.0000000	0.6000000
6.7222828	0.2109475	0.0000000	0.6000000
6.8223247	0.2132012	0.0000000	0.6000000
6.9222333	0.2153995	0.0000000	0.6000000
7.0223191	0.2175469	0.0000000	0.6000000
7.1223124	0.2196348	0.0000000	0.6000000
7.2222950	0.2216640	0.0000000	0.6000000
7.3222116	0.2236357	0.0000000	0.6000000
7.4222879	0.2255454	0.0000000	0.6000000
7.5222582	0.2273958	0.0000000	0.6000000
7.6222843	0.2291833	0.0000000	0.6000000
7.7222075	0.2309047	0.0000000	0.6000000
7.8223043	0.2325628	0.0000000	0.6000000
7.9222779	0.2341522	0.0000000	0.6000000
8.0221581	0.2356739	0.0000000	0.6000000
8.1222615	0.2371287	0.0000000	0.6000000
8.2223398	0.2385124	0.0000000	0.6000000
8.3223027	0.2398230	0.0000000	0.6000000
8.4222083	0.2410597	0.0000000	0.6000000
8.5222367	0.2422238	0.0000000	0.6000000
8.6222589	0.2433112	0.0000000	0.6000000
8.7223112	0.2443229	0.0000000	0.6000000
8.8222807	0.2452552	0.0000000	0.6000000
8.9223086	0.2461081	0.0000000	0.6000000
9.0222385	0.2468801	0.0000000	0.6000000
9.1221463	0.2475701	0.0000000	0.6000000
9.2222730	0.2481769	0.0000000	0.6000000
9.3222830	0.2486993	0.0000000	0.6000000
9.4223058	0.2491353	0.0000000	0.6000000
9.5223178	0.2494839	0.0000000	0.6000000
9.6222203	0.2497442	0.0000000	0.6000000
9.7223316	0.2499146	0.0000000	0.6000000
9.8222689	0.2499940	0.0000000	0.6000000
9.9222541	0.2500000	0.0000000	0.6000195
10.0222502	0.2500000	0.0000000	0.6001278
10.1223017	0.2500000	0.0000000	0.6003306
10.2222228	0.2500000	0.0000000	0.6006272
10.3222531	0.2500000	0.0000000	0.6010172
10.4223076	0.2500000	0.0000000	0.6015005
10.5223181	0.2500000	0.0000000	0.6020769
10.6222794	0.2500000	0.0000000	0.6027446
10.7223811	0.2500000	0.0000000	0.6035041
10.8222211	0.2500000	0.0000000	0.6043549
10.9222694	0.2500000	0.0000000	0.6052964
11.0222735	0.2500000	0.0000000	0.6063271
11.1223491	0.2500000	0.0000000	0.6074488
11.2222692	0.2500000	0.0000000	0.6086594
11.3222897	0.2500000	0.0000000	0.6099588
11.4223030	0.2500000	0.0000000	0.6113466
11.5222648	0.2500000	0.0000000	0.6128201
11.6223227	0.2500000	0.0000000	0.6143835
11.7222774	0.2500000	0.0000000	0.6160337
11.8222950	0.2500000	0.0000000	0.6177682
11.9223176	0.2500000	0.0000000	0.6195909
12.0222817	0.2500000	0.0000000	0.6214984
12.1222154	0.2500000	0.0000000	0.6234885
12.2222899	0.2500000	0.0000000	0.6255671
12.3222766	0.2500000	0.0000000	0.6277282
12.4222572	0.2500000	0.0000000	0.6299701
12.5222825	0.2500000	0.0000000	0.6322989
12.6222950	0.2500000	0.0000000	0.6347083
12.7222410	0.2500000	0.0000000	0.6371982
12.8222723	0.2500000	0.0000000	0.6397734
12.9221868	0.2500000	0.0000000	0.6424264
13.0223204	0.2500000	0.0000000	0.6451629
13.1222771	0.2500000	0.0000000	0.6479789
13.2221870	0.2500000	0.0000000	0.6508726
13.3223580	0.2500000	0.0000000	0.6538520
13.4223913	0.2500000	0.0000000	0.6569000
13.5221811	0.2500000	0.0000000	0.6600305
13.6223629	0.2500000	0.0000000	0.6632439
13.7221179	0.2500000	0.0000000	0.6665234
13.8222118	0.2500000	0.0000000	0.6698912
13.9223319	0.2500000	0.0000000	0.6733303
14.0223101	0.2500000	0.0000000	0.6768484
14.1223276	0.2500000	0.0000000	0.6804363
14.2223099	0.2500000	0.0000000	0.6841034
14.3222211	0.2500000	0.0000000	0.6878408
14.4222502	0.2500000	0.0000000	0.6916557
14.5223258	0.2500000	0.0000000	0.6955481
14.6222351	0.2500000	0.0000000	0.6995043
14.7222400	0.2500000	0.0000000	0.7035400
14.8223043	0.2500000	0.0000000	0.7076452
14.9222851	0.2500000	0.0000000	0.7118235
15.0223255	0.2500000	0.0000000	0.7160720
15.1222661	0.2500000	0.0000000	0.7203900
15.2222766	0.2500000	0.0000000	0.7247770
15.3222738	0.2500000	0.0000000	0.7292352
15.4222057	0.2500000	0.0000000	0.7337635
15.5223355	0.2500000	0.0000000	0.7383661
15.6223127	0.2500000	0.0000000	0.7430297
15.7222894	0.2500000	0.0000000	0.7477625
15.8222618	0.2500000	0.0000000	0.7525598
15.9221642	0.2500000	0.0000000	0.7574270
16.0223588	0.2500000	0.0000000	0.7623628
16.1224074	0.2500000	0.0000000	0.7673652
16.2222295	0.2500000	0.0000000	0.7724252
16.3222418	0.2500000	0.0000000	0.7775540
16.4222738	0.2500000	0.0000000	0.7827489
16.5222047	0.2500000	0.0000000	0.7880032
16.6222874	0.2500000	0.0000000	0.7933316
16.7223107	0.2500000	0.0000000	0.7987176
16.8223247	0.2500000	0.0000000	0.8041636
16.9223014	0.2500000	0.0000000	0.8096710
17.0222467	0.2500000	0.0000000	0.8152384
17.1222469	0.2500000	0.0000000	0.8208718
17.2223165	0.2500000	0.0000000	0.8265685
17.3223048	0.2500000	0.0000000	0.8323210
17.4222694	0.2500000	0.0000000	0.8381265
17.5223437	0.2500000	0.0000000	0.8440039
17.6223237	0.2500000	0.0000000	0.8499363
17.7223242	0.2500000	0.0000000	0.8559257
17.8222812	0.2500000	0.0000000	0.8619660
17.9223145	0.2500000	0.0000000	0.8680728
18.0223383	0.2500000	0.0000000	0.8742390
18.1222940	0.2500000	0.0000000	0.8804485
18.2224325	0.2500000	0.0000000	0.8867243
18.3223340	0.2500000	0.0000000	0.8930555
18.4222971	0.2500000	0.0000000	0.8994388
18.5222223	0.2500000	0.0000000	0.9058734
18.6222113	0.2500000	0.0000000	0.9123610
18.7222638	0.2500000	0.0000000	0.9189144
18.8222605	0.2500000	0.0000000	0.9255081
18.9222784	0.2500000	0.0000000	0.9321620
19.0222541	0.2500000	0.0000000	0.9388602
19.1221530	0.2500000	0.0000000	0.9456173
19.2223068	0.2500000	0.0000000	0.9524269
19.3222638	0.2500000	0.0000000	0.9592806
19.4222208	0.2500000	0.0000000	0.9661869
19.5222723	0.2500000	0.0000000	0.9731449
19.6222057	0.2500000	0.0000000	0.9801446
19.7222886	0.2500000	0.0000000	0.9872065
19.8223127	0.2500000	0.0000000	0.9943069
19.9222374	0.2500000	0.0000000	1.0014576
20.0222989	0.2500000	0.0000000	1.0086547
20.1223178	0.2500000	0.0000000	1.0159059
20.2222528	0.2500000	0.0000000	1.0231849
20.3222042	0.2500000	0.0000000	1.0305233
20.4221486	0.2500000	0.0000000	1.0379064
20.5222548	0.2500000	0.0000000	1.0453385
20.6223096	0.2500000	0.0000000	1.0528144
20.7223327	0.2500000	0.0000000	1.0603219
20.8223153	0.2500000	0.0000000	1.0678883
20.9222292	0.2500000	0.0000000	1.0754811
21.0222879	0.2500000	0.0000000	1.0831261
21.1222467	0.2500000	0.0000000	1.0908175
21.2222569	0.2500000	0.0000000	1.0985451
21.3223823	0.2500000	0.0000000	1.1063144
21.4222758	0.2500000	0.0000000	1.1141231
21.5222597	0.2500000	0.0000000	1.1219767
21.6223124	0.2500000	0.0000000	1.1298611
21.7222973	0.2500000	0.0000000	1.1377950
21.8223782	0.2500000	0.0000000	1.1457667
21.9223140	0.2500000	0.0000000	1.1537706
22.0222152	0.2500000	0.0000000	1.1618131
22.1222520	0.2500000	0.0000000	1.1698931
22.2222147	0.2500000	0.0000000	1.1780071
22.3222630	0.2500000	0.0000000	1.1861677
22.4221955	0.2500000	0.0000000	1.1943547
22.5222935	0.2500000	0.0000000	1.2025841
22.6222761	0.2500000	0.0000000	1.2108449
22.7223982	0.2500000	0.0000000	1.2191460
22.8222920	0.2500000	0.0000000	1.2274721
22.9222943	0.2500000	0.0000000	1.2358273
23.0222589	0.2500000	0.0000000	1.2442306
23.1222374	0.2500000	0.0000000	1.2526569
23.2221880	0.2500000	0.0000000	1.2611157
23.3223393	0.2500000	0.0000000	1.2696123
23.4222060	0.2500000	0.0000000	1.2781322
23.5223104	0.2500000	0.0000000	1.2866900
23.6221865	0.2500000	0.0000000	1.2952688
23.7220954	0.2500000	0.0000000	1.3038754
23.8222641	0.2500000	0.0000000	1.3125257
23.9222610	0.2500000	0.0000000	1.3211997
24.0223516	0.2500000	0.0000000	1.3299012
24.1222436	0.2500000	0.0000000	1.3386222
24.2222886	0.2500000	0.0000000	1.3473818
24.3222272	0.2500000	0.0000000	1.3561636
24.4222561	0.2500000	0.0000000	1.3649760
24.5222938	0.2500000	0.0000000	1.3738087
24.6222874	0.2500000	0.0000000	1.3826642
24.7222669	0.2500000	0.0000000	1.3915451
24.8221660	0.2500000	0.0000000	1.4004568
24.9222938	0.2500000	0.0000000	1.4093953
25.0223099	0.2500000	0.0000000	1.4183493
25.1222420	0.2500000	0.0000000	1.4273323
25.2221844	0.2500000	0.0000000	1.4363254
25.3223101	0.2500000	0.0000000	1.4453543
25.4222646	0.2500000	0.0000000	1.4543954
25.5223055	0.2500000	0.0000000	1.4634715
25.6222423	0.2500000	0.0000000	1.4725515
25.7222746	0.2500000	0.0000000	1.4816648
25.8223025	0.2500000	0.0000000	1.4907947
25.9222771	0.2500000	0.0000000	1.4999334
26.0222228	0.2500000	0.0000000	1.5090967
26.1223232	0.2500000	0.0000000	1.5182886
26.2222221	0.2500000	0.0000000	1.5274818
26.3222684	0.2500000	0.0000000	1.5367045
26.4223058	0.2500000	0.0000000	1.5459409
26.5222830	0.2500000	0.0000000	1.5551947
26.6222344	0.2500000	0.0000000	1.5644565
26.7222436	0.2500000	0.0000000	1.5737439
26.8222740	0.2500000	0.0000000	1.5830499
26.9222963	0.2500000	0.0000000	1.5923601
27.0221338	0.2500000	0.0000000	1.6016771
27.1222999	0.2500000	0.0000000	1.6110290
27.2221980	0.2500000	0.0000000	1.6203753
27.3223918	0.2500000	0.0000000	1.6297445
27.4221770	0.2500000	0.0000000	1.6391156
27.5222461	0.2500000	0.0000000	1.6485115
27.6222664	0.2500000	0.0000000	1.6579101
27.7222802	0.2500000	0.0000000	1.6673242
27.8222387	0.2500000	0.0000000	1.6767385
27.9222753	0.2500000	0.0000000	1.6861717
28.0221883	0.2500000	0.0000000	1.6956054
28.1222006	0.2500000	0.0000000	1.7050596
28.2222912	0.2500000	0.0000000	1.7145196
28.3222433	0.2500000	0.0000000	1.7239784
28.4222170	0.2500000	0.0000000	1.7334563
28.5222351	0.2500000	0.0000000	1.7429368
28.6222195	0.2500000	0.0000000	1.7524179
28.7221924	0.2500000	0.0000000	1.7619119
28.8222134	0.2500000	0.0000000	1.7714030
28.9222013	0.2500000	0.0000000	1.7809085
29.0222569	0.2500000	0.0000000	1.7904193
29.1222418	0.2500000	0.0000000	1.7999251
29.2222420	0.2500000	0.0000000	1.8094388
29.3222874	0.2500000	0.0000000	1.8189623
29.4221128	0.2500000	0.0000000	1.8284714
29.5222461	0.2500000	0.0000000	1.8379978
29.6222490	0.2500000	0.0000000	1.8475243
29.7221688	0.2500000	0.0000000	1.8570424
29.8222280	0.2500000	0.0000000	1.8665690
29.9222444	0.2500000	0.0000000	1.8761004
30.0223647	0.2500000	0.0000000	1.8856255
30.1222687	0.2500000	0.0000000	1.8951392
30.2223117	0.2500000	0.0000000	1.9046650
30.3222431	0.2500000	0.0000000	1.9141903
30.4222615	0.2500000	0.0000000	1.9237084
30.5222387	0.2500000	0.0000000	1.9332205
30.6222825	0.2500000	0.0000000	1.9427350
30.7222177	0.2500000	0.0000000	1.9522467
30.8223442	0.2500000	0.0000000	1.9617536
30.9223260	0.2500000	0.0000000	1.9712532
31.0222966	0.2500000	0.0000000	1.9807454
31.1222566	0.2500000	0.0000000	1.9902390
31.2223409	0.2500000	0.0000000	1.9997193
31.3222126	0.2500000	0.0000000	2.0091977
31.4222630	0.2500000	0.0000000	2.0186696
31.5221512	0.2500000	0.0000000	2.0281260
31.6223076	0.2500000	0.0000000	2.0375888
31.7223119	0.2500000	0.0000000	2.0470345
31.8222674	0.2500000	0.0000000	2.0564651
31.9222326	0.2500000	0.0000000	2.0658956
32.0223598	0.2500000	0.0000000	2.0753295
32.1222792	0.2500000	0.0000000	2.0847211
32.2222840	0.2500000	0.0000000	2.0941248
32.3222011	0.2500000	0.0000000	2.1035075
32.4222216	0.2500000	0.0000000	2.1128879
32.5222272	0.2500000	0.0000000	2.1222448
32.6222515	0.2500000	0.0000000	2.1315975
32.7222915	0.2500000	0.0000000	2.1409311
32.8222441	0.2500000	0.0000000	2.1502571
32.9222441	0.2500000	0.0000000	2.1595664
33.0223148	0.2500000	0.0000000	2.1688619
33.1223014	0.2500000	0.0000000	2.1781414
33.2222556	0.2500000	0.0000000	2.1873982
33.3222820	0.2500000	0.0000000	2.1966457
33.4222467	0.2500000	0.0000000	2.2058792
33.5222804	0.2500000	0.0000000	2.2150917
33.6221645	0.2500000	0.0000000	2.2242839
33.7222610	0.2500000	0.0000000	2.2334683
33.8222162	0.2500000	0.0000000	2.2426200
33.9222433	0.2500000	0.0000000	2.2517674
34.0223165	0.2500000	0.0000000	2.2608910
34.1222438	0.2500000	0.0000000	2.2699897
34.2222587	0.2500000	0.0000000	2.2790749
34.3222907	0.2500000	0.0000000	2.2881365
34.4222106	0.2500000	0.0000000	2.2971737
34.5223199	0.2500000	0.0000000	2.3061943
34.6222794	0.2500000	0.0000000	2.3151925
34.7223101	0.2500000	0.0000000	2.3241625
34.8221967	0.2500000	0.0000000	2.3331079
34.9223119	0.2500000	0.0000000	2.3420417
35.0222295	0.2500000	0.0000000	2.3509352
35.1224136	0.2500000	0.0000000	2.3598273
35.2222479	0.2500000	0.0000000	2.3686638
35.3222451	0.2500000	0.0000000	2.3774948
35.4221740	0.2500000	0.0000000	2.3862898
35.5223012	0.2500000	0.0000000	2.3950782
35.6222643	0.2500000	0.0000000	2.4038193
35.7222676	0.2500000	0.0000000	2.4125443
35.8222182	0.2500000	0.0000000	2.4212356
35.9222001	0.2500000	0.0000000	2.4298966
36.0222044	0.2500000	0.0000000	2.4385290
36.1222431	0.2500000	0.0000000	2.4471307
36.2222323	0.2500000	0.0000000	2.4557111
36.3222444	0.2500000	0.0000000	2.4642572
36.4222047	0.2500000	0.0000000	2.4727697
36.5222538	0.2500000	0.0000000	2.4812574
36.6223107	0.2500000	0.0000000	2.4897070
36.7222387	0.2500000	0.0000000	2.4981227
36.8222159	0.2500000	0.0000000	2.5065110
36.9222671	0.2500000	0.0000000	2.5148723
37.0223255	0.2500000	0.0000000	2.5231884
37.1222966	0.2500000	0.0000000	2.5314713
37.2223222	0.2500000	0.0000000	2.5397279
37.3222495	0.2500000	0.0000000	2.5479431
37.4222833	0.2500000	0.0000000	2.5561187
37.5223283	0.2500000	0.0000000	2.5642636
37.6222671	0.2500000	0.0000000	2.5723665
37.7223150	0.2500000	0.0000000	2.5804405
37.8222415	0.2500000	0.0000000	2.5884774
37.9222159	0.2500000	0.0000000	2.5964713
38.0222664	0.2500000	0.0000000	2.6044319
38.1222641	0.2500000	0.0000000	2.6123512
38.2222182	0.2500000	0.0000000	2.6202266
38.3223107	0.2500000	0.0000000	2.6280656
38.4222702	0.2500000	0.0000000	2.6358659
38.5222922	0.2500000	0.0000000	2.6436224
38.6223027	0.2500000	0.0000000	2.6513402
38.7222356	0.2500000	0.0000000	2.6590166
38.8222249	0.2500000	0.0000000	2.6666481
38.9222124	0.2500000	0.0000000	2.6742318
39.0223025	0.2500000	0.0000000	2.6817913
39.1223171	0.2500000	0.0000000	2.6892860
39.2223549	0.2500000	0.0000000	2.6967530
39.3221957	0.2500000	0.0000000	2.7041633
39.4223086	0.2500000	0.0000000	2.7115309
39.5223188	0.2500000	0.0000000	2.7188604
39.6222612	0.2500000	0.0000000	2.7261317
39.7221837	0.2500000	0.0000000	2.7333658
39.8222264	0.2500000	0.0000000	2.7405496
39.9222835	0.2500000	0.0000000	2.7476830
40.0223027	0.2500000	0.0000000	2.7547815
40.1222587	0.2500000	0.0000000	2.7618179
40.2222610	0.2500000	0.0000000	2.7688072
40.3223009	0.2500000	0.0000000	2.7757549
40.4222971	0.2500000	0.0000000	2.7826459
40.5222554	0.2500000	0.0000000	2.7894828
40.6222799	0.2500000	0.0000000	2.7962780
40.7221704	0.2500000	0.0000000	2.8030152
40.8222828	0.2500000	0.0000000	2.8097098
40.9222894	0.2500000	0.0000000	2.8163466
41.0221896	0.2500000	0.0000000	2.8229222
41.1221775	0.2500000	0.0000000	2.8294542
41.2221896	0.2500000	0.0000000	2.8359346
41.3223880	0.2500000	0.0000000	2.8423557
41.4221765	0.2500000	0.0000000	2.8487244
41.5222180	0.2500000	0.0000000	2.8550348
41.6222625	0.2500000	0.0000000	2.8612993
41.7222845	0.2500000	0.0000000	2.8674989
41.8223058	0.2500000	0.0000000	2.8736420
41.9221819	0.2500000	0.0000000	2.8797288
42.0222395	0.2500000	0.0000000	2.8857586
42.1222863	0.2500000	0.0000000	2.8917360
42.2222533	0.2500000	0.0000000	2.8976474
42.3222564	0.2500000	0.0000000	2.9034996
42.4221745	0.2500000	0.0000000	2.9092960
42.5223237	0.2500000	0.0000000	2.9150372
42.6222190	0.2500000	0.0000000	2.9207101
42.7223122	0.2500000	0.0000000	2.9263282
42.8223004	0.2500000	0.0000000	2.9318814
42.9223588	0.2500000	0.0000000	2.9373736
43.0222413	0.2500000	0.0000000	2.9427998
43.1222024	0.2500000	0.0000000	2.9481666
43.2222653	0.2500000	0.0000000	2.9534729
43.3223419	0.2500000	0.0000000	2.9587135
43.4222541	0.2500000	0.0000000	2.9638889
43.5222556	0.2500000	0.0000000	2.9689960
43.6222669	0.2500000	0.0000000	2.9740460
43.7224300	0.2500000	0.0000000	2.9790356
43.8222991	0.2500000	0.0000000	2.9839430
43.9222449	0.2500000	0.0000000	2.9887877
44.0222152	0.2500000	0.0000000	2.9935722
44.1222523	0.2500000	0.0000000	2.9982822
44.2221844	0.2500000	0.0000000	3.0029283
44.3222707	0.2500000	0.0000000	3.0075102
44.4222269	0.2500000	0.0000000	3.0120187
44.5222410	0.2500000	0.0000000	3.0164578
44.6222285	0.2500000	0.0000000	3.0208251
44.7221942	0.2500000	0.0000000	3.0251255
44.8222139	0.2500000	0.0000000	3.0293541
44.9223009	0.2500000	0.0000000	3.0335112
45.0223204	0.2500000	0.0000000	3.0375998
45.1223201	0.2500000	0.0000000	3.0416119
45.2222682	0.2500000	0.0000000	3.0455513
45.3222817	0.2500000	0.0000000	3.0494194
45.4222758	0.2500000	0.0000000	3.0532103
45.5222318	0.2500000	0.0000000	3.0569329
45.6222426	0.2500000	0.0000000	3.0605736
45.7222682	0.2500000	0.0000000	3.0641479
45.8222228	0.2500000	0.0000000	3.0676403
45.9222131	0.2500000	0.0000000	3.0710583
46.0222687	0.2500000	0.0000000	3.0744023
46.1222807	0.2500000	0.0000000	3.0776656
46.2222597	0.2500000	0.0000000	3.0808532
46.3222556	0.2500000	0.0000000	3.0839641
46.4222223	0.2500000	0.0000000	3.0869927
46.5221245	0.2500000	0.0000000	3.0899444
46.6222684	0.2500000	0.0000000	3.0928190
46.7222740	0.2500000	0.0000000	3.0956130
46.8221435	0.2500000	0.0000000	3.0983224
46.9222840	0.2500000	0.0000000	3.1009579
47.0223222	0.2500000	0.0000000	3.1035070
47.1223025	0.2500000	0.0000000	3.1059756
47.2222029	0.2500000	0.0000000	3.1083620
47.3222139	0.2500000	0.0000000	3.1106639
47.4222612	0.2500000	0.0000000	3.1128850
47.5222815	0.2500000	0.0000000	3.1150236
47.6221256	0.2500000	0.0000000	3.1170743
47.7222735	0.2500000	0.0000000	3.1190434
47.8223314	0.2500000	0.0000000	3.1209283
47.9222866	0.2500000	0.0000000	3.1227264
48.0222380	0.2500000	0.0000000	3.1244369
48.1222300	0.2500000	0.0000000	3.1260614
48.2222418	0.2500000	0.0000000	3.1275997
48.3221816	0.2500000	0.0000000	3.1290507
48.4221647	0.2500000	0.0000000	3.1304133
48.5221624	0.2500000	0.0000000	3.1316879
48.6221952	0.2500000	0.0000000	3.1328733
48.7222372	0.2500000	0.0000000	3.1339698
48.8222234	0.2500000	0.0000000	3.1349764
48.9222129	0.2500000	0.0000000	3.1358922
49.0221770	0.2500000	0.0000000	3.1367173
49.1220741	0.2500000	0.0000000	3.1374512
49.2222395	0.2500000	0.0000000	3.1380942
49.3222546	0.2500000	0.0000000	3.1386437
49.4221622	0.2500000	0.0000000	3.1391010
49.5221015	0.2500000	0.0000000	3.1394651
49.6221558	0.2500000	0.0000000	3.1397357
49.7220933	0.2500000	0.0000000	3.1399121
49.8222034	0.2500000	0.0000000	3.1399939
49.9222346	0.2500000	0.0000000	3.1400001
50.0221222	0.2500000	0.0000000	3.1400001
50.1222587	0.2500000	0.0000000	3.1400001
50.2222761	0.2500000	0.0000000	3.1400001
50.3222021	0.2500000	0.0000000	3.1400001
50.4221366	0.2500000	0.0000000	3.1400001
50.5221727	0.2500000	0.0000000	3.1400001
50.6221911	0.2500000	0.0000000	3.1400001
50.7222948	0.2500000	0.0000000	3.1400001
50.8221535	0.2500000	0.0000000	3.1400001
50.9222331	0.2500000	0.0000000	3.1400001
51.0222707	0.2500000	0.0000000	3.1400001
51.1221184	0.2500000	0.0000000	3.1400001
51.2221850	0.2500000	0.0000000	3.1400001
51.3222001	0.2500000	0.0000000	3.1400001
51.4221970	0.2500000	0.0000000	3.1400001
51.5222369	0.2500000	0.0000000	3.1400001
51.6221540	0.2500000	0.0000000	3.1400001
51.7221100	0.2500000	0.0000000	3.1400001
51.8222308	0.2500000	0.0000000	3.1400001
51.9222029	0.2500000	0.0000000	3.1400001
52.0221583	0.2500000	0.0000000	3.1400001
52.1222543	0.2500000	0.0000000	3.1400001
52.2222477	0.2500000	0.0000000	3.1400001
52.3221916	0.2500000	0.0000000	3.1400001
52.4221455	0.2500000	0.0000000	3.1400001
52.5221975	0.2500000	0.0000000	3.1400001
52.6221356	0.2500000	0.0000000	3.1400001
52.7221998	0.2500000	0.0000000	3.1400001
52.8222546	0.2500000	0.0000000	3.1400001
52.9222482	0.2500000	0.0000000	3.1400001
53.0221804	0.2500000	0.0000000	3.1400001
53.1221788	0.2500000	0.0000000	3.1400001
53.2221906	0.2500000	0.0000000	3.1400001
53.3222559	0.2500000	0.0000000	3.1400001
53.4221788	0.2500000	0.0000000	3.1400001
53.5222331	0.2500000	0.0000000	3.1400001
53.6221955	0.2500000	0.0000000	3.1400001
53.7222359	0.2500000	0.0000000	3.1400001
53.8221824	0.2500000	0.0000000	3.1400001
53.9221491	0.2500000	0.0000000	3.1400001
54.0221816	0.2500000	0.0000000	3.1400001
54.1222912	0.2500000	0.0000000	3.1400001
54.2221816	0.2500000	0.0000000	3.1400001
54.3222077	0.2500000	0.0000000	3.1400001
54.4223227	0.2500000	0.0000000	3.1400001
54.5222236	0.2500000	0.0000000	3.1400001
54.6221407	0.2500000	0.0000000	3.1400001
54.7222098	0.2500000	0.0000000	3.1400001
54.8221696	0.2500000	0.0000000	3.1400001
54.9222139	0.2500000	0.0000000	3.1400001
55.0221786	0.2500000	0.0000000	3.1400001
55.1221745	0.2500000	0.0000000	3.1400001
55.2222106	0.2500000	0.0000000	3.1400001
55.3222564	0.2500000	0.0000000	3.1400001
55.4222531	0.2500000	0.0000000	3.1400001
55.5221801	0.2500000	0.0000000	3.1400001
55.6222218	0.2500000	0.0000000	3.1400001
55.7222134	0.2500000	0.0000000	3.1400001
55.8222016	0.2500000	0.0000000	3.1400001
55.9222446	0.2500000	0.0000000	3.1400001
72.0225587	0.2500000	0.0000000	3.1400001
72.0225705	0.2500000	0.0000000	3.1400001
72.0225810	0.2500000	0.0000000	3.1400001
72.0225925	0.2500000	0.0000000	3.1400001
72.0226117	0.2500000	0.0000000	3.1400001
72.0226166	0.2500000	0.0000000	3.1400001
72.0226263	0.2500000	0.0000000	3.1400001
72.0226381	0.2500000	0.0000000	3.1400001
72.0226417	0.2500000	0.0000000	3.1400001
72.0226537	0.2500000	0.0000000	3.1400001
72.0226591	0.2500000	0.0000000	3.1400001
72.0226673	0.2500000	0.0000000	3.1400001
72.0226706	0.2500000	0.0000000	3.1400001
72.0226742	0.2500000	0.0000000	3.1400001
72.0226811	0.2500000	0.0000000	3.1400001
72.0226926	0.2500000	0.0000000	3.1400001
72.0226964	0.2500000	0.0000000	3.1400001
72.0227075	0.2500000	0.0000000	3.1400001
72.0227108	0.2500000	0.0000000	3.1400001
72.0227192	0.2500000	0.0000000	3.1400001
72.0227676	0.2500000	0.0000000	3.1400001
72.0227712	0.2500000	0.0000000	3.1400001
72.0227835	0.2500000	0.0000000	3.1400001
72.0227876	0.2500000	0.0000000	3.1400001
72.0227907	0.2500000	0.0000000	3.1400001
72.0227937	0.2500000	0.0000000	3.1400001
72.0227965	0.2500000	0.0000000	3.1400001
72.0228024	0.2500000	0.0000000	3.1400001
72.0228147	0.2500000	0.0000000	3.1400001
72.0228178	0.2500000	0.0000000	3.1400001
72.0228265	0.2500000	0.0000000	3.1400001
72.0228293	0.2500000	0.0000000	3.1400001
72.0228390	0.2500000	0.0000000	3.1400001
72.0228503	0.2500000	0.0000000	3.1400001
72.0228536	0.2500000	0.0000000	3.1400001
72.0228564	0.2500000	0.0000000	3.1400001
72.0228626	0.2500000	0.0000000	3.1400001
72.0228703	0.2500000	0.0000000	3.1400001
72.0228733	0.2500000	0.0000000	3.1400001
72.0228874	0.2500000	0.0000000	3.1400001
72.0228905	0.2500000	0.0000000	3.1400001
72.0228987	0.2500000	0.0000000	3.1400001
72.0229015	0.2500000	0.0000000	3.1400001
72.0229128	0.2500000	0.0000000	3.1400001
72.0229243	0.2500000	0.0000000	3.1400001
72.0229279	0.2500000	0.0000000	3.1400001
72.0229312	0.2500000	0.0000000	3.1400001
72.0229340	0.2500000	0.0000000	3.1400001
72.0229399	0.2500000	0.0000000	3.1400001
72.0231537	0.2500000	0.0000000	3.1400001
72.0231731	0.2500000	0.0000000	3.1400001
72.0231759	0.2500000	0.0000000	3.1400001
72.0231900	0.2500000	0.0000000	3.1400001
72.0231928	0.2500000	0.0000000	3.1400001
72.0232038	0.2500000	0.0000000	3.1400001
72.0232274	0.2500000	0.0000000	3.1400001
72.0232305	0.2500000	0.0000000	3.1400001
72.0232333	0.2500000	0.0000000	3.1400001
72.0232358	0.2500000	0.0000000	3.1400001
72.0232387	0.2500000	0.0000000	3.1400001
72.0232492	0.2500000	0.0000000	3.1400001
72.0232596	0.2500000	0.0000000	3.1400001
72.0232701	0.2500000	0.0000000	3.1400001
72.0232809	0.2500000	0.0000000	3.1400001
72.0232922	0.2500000	0.0000000	3.1400001
72.0233027	0.2500000	0.0000000	3.1400001
72.0233132	0.2500000	0.0000000	3.1400001
72.0233234	0.2500000	0.0000000	3.1400001
72.0233336	0.2500000	0.0000000	3.1400001
72.0233428	0.2500000	0.0000000	3.1400001
72.0233528	0.2500000	0.0000000	3.1400001
72.0233631	0.2500000	0.0000000	3.1400001
72.0233725	0.2500000	0.0000000	3.1400001
72.0233825	0.2500000	0.0000000	3.1400001
72.0233925	0.2500000	0.0000000	3.1400001
72.0234028	0.2500000	0.0000000	3.1400001
72.0234132	0.2500000	0.0000000	3.1400001
72.0234237	0.2500000	0.0000000	3.1400001
72.0234350	0.2500000	0.0000000	3.1400001
72.0234460	0.2500000	0.0000000	3.1400001
72.0234568	0.2500000	0.0000000	3.1400001
72.0234678	0.2500000	0.0000000	3.1400001
72.0234790	0.2500000	0.0000000	3.1400001
72.0234906	0.2500000	0.0000000	3.1400001
72.0235016	0.2500000	0.0000000	3.1400001
72.0235128	0.2500000	0.0000000	3.1400001
72.0235241	0.2500000	0.0000000	3.1400001
72.0235351	0.2500000	0.0000000	3.1400001
72.0235461	0.2500000	0.0000000	3.1400001
72.0235571	0.2500000	0.0000000	3.1400001
72.0235681	0.2500000	0.0000000	3.1400001
72.0235937	0.2500000	0.0000000	3.1400001
72.0236052	0.2500000	0.0000000	3.1400001
72.0236165	0.2500000	0.0000000	3.1400001
72.0236280	0.2500000	0.0000000	3.1400001
72.0236390	0.2500000	0.0000000	3.1400001
72.0236500	0.2500000	0.0000000	3.1400001
72.0236608	0.2500000	0.0000000	3.1400001
72.0236721	0.2500000	0.0000000	3.1400001
72.0236833	0.2500000	0.0000000	3.1400001
72.0237061	0.2500000	0.0000000	3.1400001
72.0237187	0.2500000	0.0000000	3.1400001
72.0237297	0.2500000	0.0000000	3.1400001
72.0237412	0.2500000	0.0000000	3.1400001
72.0237522	0.2500000	0.0000000	3.1400001
72.0237635	0.2500000	0.0000000	3.1400001
72.0237750	0.2500000	0.0000000	3.1400001
72.0237865	0.2500000	0.0000000	3.1400001
72.0237975	0.2500000	0.0000000	3.1400001
72.0238085	0.2500000	0.0000000	3.1400001
72.0238195	0.2500000	0.0000000	3.1400001
72.0238305	0.2500000	0.0000000	3.1400001
72.0238415	0.2500000	0.0000000	3.1400001
72.0238528	0.2500000	0.0000000	3.1400001
72.0238633	0.2500000	0.0000000	3.1400001
72.0238743	0.2500000	0.0000000	3.1400001
72.0238856	0.2500000	0.0000000	3.1400001
72.0238968	0.2500000	0.0000000	3.1400001
72.0239068	0.2500000	0.0000000	3.1400001
72.0239181	0.2500000	0.0000000	3.1400001
72.0239301	0.2500000	0.0000000	3.1400001
72.0239411	0.2500000	0.0000000	3.1400001
72.0239524	0.2500000	0.0000000	3.1400001
72.0239639	0.2500000	0.0000000	3.1400001
72.0239752	0.2500000	0.0000000	3.1400001
72.0239859	0.2500000	0.0000000	3.1400001