# Time	x	y	z	roll	pitch	yaw	vx	vy	vz	
-4.4523407	0.0000000	0.0000000	-0.3940106	-0.1926151	-0.2567005	1.3251917	0.0000000	0.0000000	-0.0000000
-4.3525187	0.0001130	0.0005273	-0.3909502	-0.1935101	-0.2419311	1.3280682	0.0090653	0.0005550	-0.0030175
-4.2524777	0.0004686	0.0013362	-0.3847870	-0.1917650	-0.2352320	1.3309433	0.0104471	-0.0034361	-0.0003446
-4.1523203	0.0011123	0.0017722	-0.3897072	-0.1916401	-0.2380396	1.3337615	0.0024438	-0.0075290	0.0038735
-4.0524552	0.0017543	0.0012228	-0.3909502	-0.1903178	-0.2504880	1.3355175	-0.0075910	-0.0087880	0.0064505
-3.9524559	0.0021971	0.0001880	-0.3857769	-0.1916895	-0.2683585	1.3361804	-0.0090313	-0.0085098	0.0043284
-3.8522156	0.0028161	-0.0005639	-0.3941675	-0.1911203	-0.2877010	1.3370246	-0.0037789	-0.0060595	-0.0047217
-3.7521789	0.0035022	-0.0003874	-0.3940106	-0.1892129	-0.3035784	1.3386044	0.0068780	-0.0038652	-0.0088550
-3.6524460	0.0042800	0.0007651	-0.3930119	-0.1889829	-0.3120473	1.3409138	0.0178577	-0.0040994	-0.0069047
-3.5522368	0.0053601	0.0026683	-0.3969662	-0.1888968	-0.3125229	1.3440503	0.0217911	-0.0048213	-0.0045617
-3.4524326	0.0061157	0.0041820	-0.3878882	-0.1901488	-0.3069042	1.3472453	0.0175236	-0.0055559	0.0020531
-3.3522877	0.0068024	0.0049756	-0.3898948	-0.1914649	-0.2988021	1.3494591	0.0020059	-0.0036873	-0.0010278
-3.2525130	0.0069527	0.0042795	-0.3902520	-0.1924596	-0.2909623	1.3501180	-0.0166936	-0.0014175	-0.0040975
-3.1524682	0.0065337	0.0022860	-0.3868678	-0.1922390	-0.2839044	1.3488873	-0.0283783	0.0001184	-0.0042061
-3.0523684	0.0060212	-0.0002304	-0.3883158	-0.1908730	-0.2767172	1.3465902	-0.0282883	0.0012266	-0.0087404
-2.9524951	0.0057075	-0.0021495	-0.3898568	-0.1891022	-0.2688831	1.3445225	-0.0178325	0.0004004	-0.0136393
-2.8524951	0.0058317	-0.0027967	-0.3920045	-0.1877551	-0.2614053	1.3438947	-0.0038482	-0.0001699	-0.0172820
-2.7523523	0.0063023	-0.0022404	-0.3944675	-0.1871748	-0.2572468	1.3450018	0.0068491	0.0006657	-0.0175139
-2.6525046	0.0065088	-0.0013814	-0.3915297	-0.1872151	-0.2596785	1.3477822	0.0095994	0.0016614	-0.0120944
-2.5522947	0.0063315	-0.0008210	-0.3848469	-0.1871511	-0.2694799	1.3513938	0.0077914	0.0020214	-0.0068993
-2.4525038	0.0068020	0.0002731	-0.3914621	-0.1862267	-0.2837923	1.3548034	0.0016572	0.0034445	-0.0183508
-2.3524495	0.0068987	0.0008266	-0.3902842	-0.1841977	-0.2967682	1.3572602	0.0000066	0.0023220	-0.0274437
-2.2525074	0.0074030	0.0017068	-0.3903332	-0.1817589	-0.3032424	1.3585020	0.0036991	-0.0001615	-0.0346511
-2.1524785	0.0080906	0.0029011	-0.3867487	-0.1804454	-0.3016180	1.3590572	0.0108775	-0.0041468	-0.0311609
-2.0524923	0.0095894	0.0046360	-0.3869735	-0.1813896	-0.2939006	1.3593075	0.0168094	-0.0100775	-0.0234825
-1.9522721	0.0118748	0.0066050	-0.3910596	-0.1848031	-0.2843235	1.3599874	0.0193860	-0.0161018	-0.0156946
-1.8522627	0.0142042	0.0081408	-0.3929811	-0.1897974	-0.2775486	1.3612057	0.0166918	-0.0192732	-0.0063179
-1.7525284	0.0163494	0.0086005	-0.3889086	-0.1948847	-0.2768627	1.3626281	0.0081599	-0.0203999	0.0076883
-1.6524582	0.0179059	0.0083151	-0.3886893	-0.1989315	-0.2808770	1.3637565	-0.0024713	-0.0171539	0.0098144
-1.5524623	0.0190689	0.0075471	-0.3918709	-0.2006372	-0.2882026	1.3644054	-0.0108999	-0.0094069	0.0018728
-1.4524826	0.0190296	0.0058595	-0.3868678	-0.1994217	-0.2948647	1.3646012	-0.0145072	0.0006996	-0.0057811
-1.3524897	0.0189582	0.0054211	-0.3945462	-0.1970102	-0.2987411	1.3643838	-0.0129866	0.0097040	-0.0231308
-1.2524723	0.0176943	0.0049288	-0.3881951	-0.1931153	-0.2994335	1.3641147	-0.0074028	0.0143535	-0.0268985
-1.1524710	0.0167024	0.0054519	-0.3889086	-0.1892919	-0.2975796	1.3640047	-0.0033053	0.0167824	-0.0347551
-1.0524580	0.0157084	0.0063697	-0.3887995	-0.1858210	-0.2948511	1.3641492	-0.0008067	0.0167676	-0.0409752
-0.9524941	0.0150214	0.0075645	-0.3900413	-0.1832111	-0.2919071	1.3645550	-0.0002501	0.0130115	-0.0441961
-0.8524726	0.0145590	0.0083937	-0.3889086	-0.1815803	-0.2899544	1.3649420	-0.0002114	0.0067628	-0.0388411
-0.7524977	0.0151603	0.0093702	-0.3937328	-0.1809092	-0.2893020	1.3652529	-0.0006456	0.0002469	-0.0293768
-0.6524698	0.0156287	0.0098120	-0.3917292	-0.1812445	-0.2886647	1.3655935	0.0062371	-0.0061433	-0.0149821
-0.5523139	0.0167505	0.0107033	-0.3909495	-0.1826733	-0.2869369	1.3662259	0.0151922	-0.0119417	-0.0057315
-0.4524549	0.0187202	0.0123611	-0.3928553	-0.1849014	-0.2854113	1.3673666	0.0205469	-0.0145455	-0.0031291
-0.3525018	0.0209063	0.0142584	-0.3959332	-0.1873940	-0.2860322	1.3688141	0.0183987	-0.0137399	-0.0065150
-0.2523825	0.0221571	0.0151993	-0.3919755	-0.1894874	-0.2889004	1.3702339	0.0132499	-0.0108538	-0.0081021
-0.1524913	0.0234600	0.0162615	-0.3921836	-0.1909030	-0.2918353	1.3713363	0.0089579	-0.0069992	-0.0122789
-0.0524567	0.0240955	0.0169977	-0.3883252	-0.1915615	-0.2924820	1.3719999	0.0097770	-0.0030152	-0.0130569
0.0475346	0.0248784	0.0183836	-0.3910335	-0.1917201	-0.2901047	1.3721452	0.0109639	0.0005356	-0.0187196
0.1475343	0.0254582	0.0189100	-0.3957358	-0.1918407	-0.2848142	1.3725555	-0.0140693	0.0007636	-0.0194178
0.2475384	0.0236712	0.0150614	-0.3869158	-0.1910548	-0.2770534	1.3681341	-0.0561033	0.0103175	-0.0018128
0.3476355	0.0198602	0.0090607	-0.3871472	-0.1890109	-0.2739779	1.3630669	-0.0761396	0.0371340	0.0081037
0.4475261	0.0138823	0.0024401	-0.3896496	-0.1862969	-0.2783018	1.3580814	-0.0906988	0.0546329	0.0144395
0.5475013	0.0036653	-0.0078006	-0.3807461	-0.1821443	-0.2928051	1.3535359	-0.1012458	0.0648048	0.0212909
0.6475264	-0.0033432	-0.0147985	-0.3914610	-0.1828934	-0.3092564	1.3499719	-0.1030222	0.0677652	0.0109406
0.7475167	-0.0120502	-0.0218380	-0.3890402	-0.1828962	-0.3239629	1.3462363	-0.0903155	0.0627650	0.0100803
0.8474941	-0.0205392	-0.0280257	-0.3878882	-0.1832392	-0.3337738	1.3422362	-0.0684867	0.0526693	0.0077060
0.9476613	-0.0261402	-0.0323130	-0.3903004	-0.1853129	-0.3379034	1.3393990	-0.0549006	0.0440273	0.0077233
1.0475241	-0.0308615	-0.0361878	-0.3903537	-0.1873740	-0.3390558	1.3370129	-0.0525531	0.0282884	0.0150007
1.1475305	-0.0348341	-0.0410184	-0.3858482	-0.1894176	-0.3411087	1.3345530	-0.0582721	0.0087720	0.0267738
1.2474998	-0.0370319	-0.0484775	-0.3918799	-0.1921661	-0.3423286	1.3320197	-0.0738329	-0.0044378	0.0307959
1.3475018	-0.0387973	-0.0557799	-0.3833604	-0.1950999	-0.3409142	1.3282030	-0.0831557	-0.0152046	0.0356943
1.4475172	-0.0401795	-0.0653476	-0.3848262	-0.1977853	-0.3350317	1.3229735	-0.0906543	-0.0159364	0.0261587
1.5475249	-0.0414879	-0.0745968	-0.3830742	-0.1985967	-0.3240370	1.3172824	-0.0987770	-0.0132871	0.0157549
1.6475213	-0.0430151	-0.0845376	-0.3841007	-0.1977246	-0.3094898	1.3105952	-0.1020406	-0.0104161	0.0001394
1.7475220	-0.0443683	-0.0939853	-0.3878882	-0.1952904	-0.2950337	1.3029585	-0.1034956	-0.0132012	-0.0065770
1.8475246	-0.0461188	-0.1053675	-0.3845504	-0.1917959	-0.2849467	1.2952257	-0.0999337	-0.0151174	-0.0029997
1.9475041	-0.0468689	-0.1143244	-0.3884667	-0.1882830	-0.2806901	1.2884854	-0.0890461	-0.0167892	-0.0096377
2.0476585	-0.0468318	-0.1221422	-0.3920236	-0.1852881	-0.2823733	1.2831383	-0.0800950	-0.0227182	-0.0154036
2.1475551	-0.0468715	-0.1317001	-0.3897019	-0.1833083	-0.2890558	1.2788194	-0.0757209	-0.0368699	-0.0130039
2.2475272	-0.0441295	-0.1390325	-0.3953571	-0.1824844	-0.3000967	1.2751429	-0.0735149	-0.0469982	-0.0088285
2.3475057	-0.0434471	-0.1489221	-0.3858821	-0.1831035	-0.3114351	1.2716953	-0.0690057	-0.0535844	0.0087443
2.4476114	-0.0401518	-0.1565333	-0.3911192	-0.1846058	-0.3192264	1.2679829	-0.0630966	-0.0497358	0.0064478
2.5475185	-0.0378783	-0.1638971	-0.3912999	-0.1859234	-0.3231352	1.2634607	-0.0587820	-0.0408393	0.0051118
2.6474962	-0.0360018	-0.1711942	-0.3931416	-0.1866666	-0.3248195	1.2579466	-0.0648730	-0.0374594	0.0010691
2.7475008	-0.0349776	-0.1781260	-0.3860965	-0.1869572	-0.3274285	1.2518146	-0.0760857	-0.0454044	0.0097741
2.8474995	-0.0329468	-0.1872670	-0.3861170	-0.1871269	-0.3334890	1.2458502	-0.0793738	-0.0560216	0.0136310
2.9474826	-0.0297737	-0.1967224	-0.3879408	-0.1868642	-0.3417916	1.2410432	-0.0683459	-0.0662914	0.0078726
3.0475174	-0.0255340	-0.2050916	-0.3913412	-0.1863447	-0.3469559	1.2374609	-0.0539962	-0.0703998	-0.0062868
3.1476675	-0.0194579	-0.2116037	-0.3899282	-0.1863374	-0.3477047	1.2347920	-0.0366086	-0.0735187	-0.0165407
3.2475287	-0.0137548	-0.2158445	-0.3881416	-0.1869146	-0.3448648	1.2334330	-0.0330855	-0.0782188	-0.0201389
3.3475254	-0.0067662	-0.2209584	-0.3855729	-0.1883466	-0.3392996	1.2318156	-0.0415481	-0.0873491	-0.0218761
3.4475144	0.0010413	-0.2279038	-0.3838065	-0.1898456	-0.3334742	1.2290549	-0.0516054	-0.0954083	-0.0248785
3.5477084	0.0084456	-0.2357163	-0.3873243	-0.1893411	-0.3282988	1.2255025	-0.0630622	-0.1046536	-0.0257629
3.6476506	0.0169776	-0.2456937	-0.3879841	-0.1881646	-0.3248020	1.2207691	-0.0729084	-0.1161281	-0.0236623
3.7474890	0.0258068	-0.2572125	-0.3838065	-0.1864768	-0.3248255	1.2157457	-0.0748561	-0.1279132	-0.0170255
3.8475195	0.0350932	-0.2681815	-0.3840075	-0.1853692	-0.3276636	1.2119808	-0.0700714	-0.1344016	-0.0100686
3.9475151	0.0460129	-0.2794736	-0.3880149	-0.1849837	-0.3295012	1.2085670	-0.0639602	-0.1398648	-0.0041062
4.0474977	0.0574203	-0.2903839	-0.3940106	-0.1855854	-0.3295214	1.2053543	-0.0596380	-0.1427302	-0.0046282
4.1476526	0.0676287	-0.3012368	-0.3888400	-0.1864632	-0.3267872	1.2021452	-0.0584749	-0.1424454	-0.0040462
4.2475372	0.0785384	-0.3125857	-0.3878684	-0.1873801	-0.3219958	1.1984696	-0.0632471	-0.1430279	-0.0058082
4.3475251	0.0886644	-0.3240287	-0.3858482	-0.1882257	-0.3159195	1.1949063	-0.0669422	-0.1415821	-0.0029402
4.4475062	0.0992805	-0.3347748	-0.3899272	-0.1887429	-0.3102470	1.1921508	-0.0694953	-0.1356157	-0.0028958
4.5474967	0.1094313	-0.3460671	-0.3931374	-0.1888996	-0.3078551	1.1897196	-0.0758461	-0.1348465	-0.0046124
4.6475098	0.1181767	-0.3610102	-0.3868676	-0.1887380	-0.3084963	1.1869616	-0.0808679	-0.1400060	-0.0003938
4.7476646	0.1268839	-0.3751867	-0.3815368	-0.1884635	-0.3127827	1.1830038	-0.0776489	-0.1464106	0.0069978
4.8475069	0.1377473	-0.3880781	-0.3811466	-0.1887266	-0.3147724	1.1781241	-0.0655652	-0.1538942	0.0051290
4.9474998	0.1505223	-0.3992996	-0.3868486	-0.1895722	-0.3104756	1.1728861	-0.0588570	-0.1616570	-0.0099922
5.0475039	0.1618887	-0.4125656	-0.3798823	-0.1904568	-0.3038052	1.1676644	-0.0574232	-0.1652108	-0.0211767
5.1475325	0.1759448	-0.4222137	-0.3880045	-0.1909936	-0.2991106	1.1630976	-0.0577382	-0.1629125	-0.0366452
5.2476352	0.1885687	-0.4360200	-0.3860990	-0.1908396	-0.3004610	1.1591357	-0.0638978	-0.1623779	-0.0351742
5.3476367	0.2002988	-0.4500962	-0.3845541	-0.1903003	-0.3097133	1.1555170	-0.0797722	-0.1687175	-0.0318339
5.4475246	0.2142302	-0.4632023	-0.3938554	-0.1895184	-0.3248768	1.1514177	-0.0937744	-0.1760248	-0.0360554
5.5475067	0.2267985	-0.4789353	-0.3892937	-0.1887890	-0.3391668	1.1464462	-0.0937852	-0.1831119	-0.0302674
5.6475156	0.2399265	-0.4938743	-0.3909943	-0.1882067	-0.3459858	1.1403733	-0.0915871	-0.1898465	-0.0359770
5.7475315	0.2565206	-0.5055164	-0.3807461	-0.1882538	-0.3436645	1.1328527	-0.0910745	-0.1953973	-0.0340702
5.8475300	0.2691132	-0.5243205	-0.3936015	-0.1873967	-0.3360377	1.1272747	-0.0928969	-0.1991247	-0.0447372
5.9475282	0.2846729	-0.5385543	-0.3858920	-0.1873654	-0.3276679	1.1221762	-0.0862858	-0.2115539	-0.0344609
6.0475095	0.3017461	-0.5562427	-0.3929902	-0.1881716	-0.3205588	1.1181417	-0.0783355	-0.2186025	-0.0327763
6.1474895	0.3165734	-0.5721078	-0.3900542	-0.1888172	-0.3126088	1.1152878	-0.0721498	-0.2178851	-0.0243078
6.2474836	0.3331677	-0.5882345	-0.3921723	-0.1911466	-0.3009810	1.1111599	-0.0743046	-0.2136449	-0.0213526
6.3476488	0.3475554	-0.6094025	-0.3848262	-0.1949285	-0.2885304	1.1044268	-0.0844336	-0.2104891	-0.0127814
6.4475039	0.3622673	-0.6224936	-0.3900280	-0.1968643	-0.2800990	1.0961860	-0.1046189	-0.2073195	-0.0161459
6.5475164	0.3740500	-0.6492403	-0.3840944	-0.1976146	-0.2798921	1.0859073	-0.1275721	-0.2082561	-0.0126677
6.6474839	0.3868321	-0.6677038	-0.3889086	-0.1951943	-0.2898437	1.0755015	-0.1450595	-0.2113150	-0.0204654
6.7475195	0.3969425	-0.6955664	-0.3835338	-0.1909810	-0.3050561	1.0667875	-0.1500005	-0.2158021	-0.0284981
6.8475090	0.4103614	-0.7178774	-0.3912296	-0.1856574	-0.3189343	1.0595581	-0.1443187	-0.2181695	-0.0444527
6.9475108	0.4211830	-0.7389874	-0.3868678	-0.1818312	-0.3265015	1.0536341	-0.1356707	-0.2222018	-0.0418822
7.0476411	0.4348835	-0.7616735	-0.3910454	-0.1810703	-0.3261286	1.0480713	-0.1340915	-0.2289104	-0.0389975
7.1475136	0.4482219	-0.7842681	-0.3917095	-0.1831459	-0.3191551	1.0413476	-0.1412336	-0.2373938	-0.0292001
7.2476275	0.4597974	-0.8067498	-0.3869050	-0.1864619	-0.3094584	1.0327172	-0.1534735	-0.2438782	-0.0143046
7.3475034	0.4736801	-0.8326747	-0.3955399	-0.1892266	-0.3024158	1.0223841	-0.1707530	-0.2453204	-0.0099602
7.4474975	0.4846663	-0.8620088	-0.3936362	-0.1904328	-0.2996566	1.0116003	-0.1789483	-0.2458032	-0.0023803
7.5475251	0.4950757	-0.8917435	-0.3920322	-0.1903913	-0.2992279	1.0016317	-0.1771893	-0.2449172	0.0016436
7.6475162	0.5040144	-0.9210605	-0.3869107	-0.1898521	-0.2982617	0.9927669	-0.1683645	-0.2431301	0.0046382
7.7475366	0.5155583	-0.9468828	-0.3922619	-0.1898553	-0.2953801	0.9844584	-0.1642078	-0.2398005	-0.0000767
7.8477563	0.5255682	-0.9748258	-0.3919792	-0.1912023	-0.2908872	0.9761948	-0.1651832	-0.2379532	0.0040178
7.9475067	0.5329986	-1.0050402	-0.3855785	-0.1940122	-0.2870710	0.9676559	-0.1727887	-0.2387351	0.0139702
8.0474975	0.5418188	-1.0330762	-0.3865910	-0.1972162	-0.2872897	0.9591521	-0.1840650	-0.2381098	0.0114172
8.1476426	0.5494436	-1.0634798	-0.3859039	-0.1994357	-0.2918186	0.9510367	-0.1941285	-0.2377197	0.0067002
8.2475402	0.5560974	-1.0927642	-0.3863664	-0.1992517	-0.2989631	0.9432717	-0.2020611	-0.2340219	-0.0024561
8.3476884	0.5633179	-1.1277151	-0.3848262	-0.1953870	-0.3057368	0.9348215	-0.2092340	-0.2280284	-0.0167938
8.4475190	0.5687093	-1.1554646	-0.3876946	-0.1913438	-0.3104203	0.9273534	-0.2135541	-0.2269777	-0.0257934
8.5475169	0.5738730	-1.1842358	-0.3898214	-0.1871253	-0.3115077	0.9190007	-0.2132246	-0.2235582	-0.0253160
8.6475392	0.5787784	-1.2156040	-0.3899282	-0.1854539	-0.3077827	0.9100465	-0.2083607	-0.2223412	-0.0156037
8.7476127	0.5829136	-1.2434799	-0.3904266	-0.1859462	-0.3002472	0.9023836	-0.1995511	-0.2258622	-0.0054166
8.8475469	0.5881193	-1.2735426	-0.3916867	-0.1886774	-0.2905284	0.8945782	-0.1904697	-0.2308976	0.0003395
8.9475259	0.5926324	-1.3046157	-0.3889086	-0.1922021	-0.2806355	0.8864413	-0.1847732	-0.2358018	0.0065517
9.0475054	0.6005966	-1.3284310	-0.3951567	-0.1936939	-0.2750804	0.8792919	-0.1844230	-0.2344822	0.0008723
9.1474977	0.6035615	-1.3647386	-0.3890282	-0.1936898	-0.2758864	0.8724192	-0.1900300	-0.2353885	0.0050392
9.2476470	0.6082661	-1.3937213	-0.3899282	-0.1921286	-0.2830106	0.8663310	-0.1976753	-0.2323639	0.0050321
9.3475095	0.6102947	-1.4274732	-0.3849170	-0.1900336	-0.2940033	0.8607197	-0.2053425	-0.2354129	0.0140279
9.4474993	0.6154037	-1.4585563	-0.3911437	-0.1877942	-0.3050910	0.8549985	-0.2132483	-0.2437512	0.0189968
9.5475274	0.6174723	-1.4888333	-0.3848262	-0.1860844	-0.3124002	0.8488862	-0.2177126	-0.2511053	0.0315536
9.6476362	0.6204867	-1.5229153	-0.3847230	-0.1851653	-0.3135012	0.8427295	-0.2182574	-0.2552357	0.0277531
9.7475044	0.6239440	-1.5614143	-0.3922624	-0.1848946	-0.3072460	0.8366669	-0.2180078	-0.2546964	0.0168618
9.8474826	0.6263644	-1.5910241	-0.3868774	-0.1853539	-0.2954480	0.8311917	-0.2160489	-0.2508999	0.0155614
9.9475282	0.6306589	-1.6237198	-0.3924400	-0.1864916	-0.2822404	0.8265352	-0.2180868	-0.2440168	0.0012509
10.0475213	0.6316506	-1.6586897	-0.3908376	-0.1882383	-0.2715042	0.8227372	-0.2224188	-0.2411989	0.0006060
10.1475044	0.6307512	-1.6963452	-0.3880143	-0.1899509	-0.2678073	0.8192675	-0.2315253	-0.2409272	0.0044387
10.2476301	0.6320630	-1.7279607	-0.3904676	-0.1909428	-0.2713316	0.8152093	-0.2448028	-0.2435009	0.0033291
10.3475059	0.6293270	-1.7678184	-0.3877904	-0.1911004	-0.2803952	0.8096981	-0.2598017	-0.2450397	0.0113038
10.4475220	0.6286401	-1.8030153	-0.3911302	-0.1908279	-0.2928917	0.8032798	-0.2670675	-0.2448820	0.0195236
10.5475223	0.6265980	-1.8376298	-0.3914446	-0.1906899	-0.3050789	0.7975648	-0.2606270	-0.2407039	0.0208896
10.6475592	0.6249804	-1.8712472	-0.3887423	-0.1910341	-0.3130974	0.7939659	-0.2470421	-0.2365734	0.0197073
10.7476485	0.6228418	-1.9074326	-0.3932629	-0.1914342	-0.3151540	0.7923465	-0.2370249	-0.2323272	0.0136373
10.8475082	0.6250642	-1.9330700	-0.3875110	-0.1914133	-0.3113006	0.7914020	-0.2324116	-0.2294849	0.0126638
10.9475197	0.6249770	-1.9678698	-0.3868678	-0.1908420	-0.3044436	0.7890717	-0.2367113	-0.2279055	0.0057562
11.0474752	0.6240485	-1.9970074	-0.3853087	-0.1887887	-0.2995659	0.7851308	-0.2450105	-0.2285157	0.0046679
11.1475320	0.6221605	-2.0296329	-0.3901667	-0.1867859	-0.2977300	0.7789071	-0.2549995	-0.2284166	0.0028226
11.2477148	0.6193269	-2.0672881	-0.3940106	-0.1848051	-0.3000698	0.7716526	-0.2627224	-0.2340585	0.0055576
11.3475267	0.6141764	-2.0984451	-0.3872729	-0.1840197	-0.3052828	0.7664095	-0.2592909	-0.2391768	0.0167787
11.4474988	0.6115122	-2.1340952	-0.3896574	-0.1835449	-0.3114009	0.7629733	-0.2498388	-0.2410301	0.0213019
11.5475269	0.6091419	-2.1683678	-0.3899282	-0.1837136	-0.3149636	0.7615189	-0.2410512	-0.2416206	0.0249051
11.6476216	0.6072236	-2.2007055	-0.3901736	-0.1845032	-0.3138879	0.7607374	-0.2404016	-0.2400992	0.0229465
11.7475105	0.6052198	-2.2328266	-0.3874045	-0.1859075	-0.3096034	0.7592343	-0.2473707	-0.2409473	0.0230071
11.8475249	0.6024036	-2.2669124	-0.3878882	-0.1876324	-0.3050243	0.7564147	-0.2603799	-0.2429989	0.0189041
11.9474964	0.5984289	-2.3024164	-0.3863422	-0.1890073	-0.3043167	0.7527660	-0.2744984	-0.2439070	0.0198845
12.0475144	0.5934247	-2.3397333	-0.3911448	-0.1898705	-0.3081789	0.7488886	-0.2855456	-0.2416749	0.0202421
12.1475172	0.5884119	-2.3746825	-0.3868678	-0.1900676	-0.3141035	0.7453875	-0.2899096	-0.2410698	0.0286199
12.2476618	0.5827846	-2.4114023	-0.3862248	-0.1897542	-0.3176939	0.7419768	-0.2853728	-0.2414850	0.0352032
12.3477135	0.5772319	-2.4476099	-0.3852907	-0.1893526	-0.3165888	0.7379717	-0.2774947	-0.2412365	0.0386195
12.4475005	0.5719139	-2.4819613	-0.3848359	-0.1892730	-0.3112147	0.7327742	-0.2710065	-0.2391778	0.0389860
12.5475315	0.5658938	-2.5184717	-0.3870989	-0.1898123	-0.3033279	0.7266280	-0.2682674	-0.2349301	0.0315130
12.6477294	0.5597163	-2.5545425	-0.3866970	-0.1913240	-0.2958843	0.7204703	-0.2714493	-0.2311518	0.0215159
12.7476716	0.5535141	-2.5885239	-0.3890512	-0.1933335	-0.2913910	0.7153881	-0.2799341	-0.2288270	0.0125385
12.8475190	0.5473726	-2.6221971	-0.3951591	-0.1948569	-0.2922074	0.7124504	-0.2864965	-0.2279766	0.0029751
12.9475405	0.5364992	-2.6699426	-0.3846478	-0.1950684	-0.2979079	0.7119241	-0.2852177	-0.2300805	0.0072516
13.0476754	0.5295846	-2.7060758	-0.3884515	-0.1938040	-0.3048463	0.7130777	-0.2808360	-0.2307673	0.0003423
13.1475023	0.5239561	-2.7403948	-0.3882032	-0.1914745	-0.3093727	0.7143262	-0.2739197	-0.2331113	0.0029558
13.2474711	0.5174278	-2.7804593	-0.3919698	-0.1880983	-0.3107999	0.7137180	-0.2712465	-0.2372806	0.0104492
13.3476820	0.5121415	-2.8104764	-0.3891725	-0.1855005	-0.3108867	0.7106570	-0.2744991	-0.2416550	0.0268135
13.4476232	0.5058707	-2.8472057	-0.3932347	-0.1836750	-0.3108178	0.7051985	-0.2849300	-0.2448693	0.0435466
13.5475149	0.4959952	-2.8875566	-0.3899282	-0.1838044	-0.3122514	0.6985615	-0.2983105	-0.2484139	0.0688510
13.6475374	0.4865819	-2.9222314	-0.3863817	-0.1859188	-0.3137008	0.6936821	-0.3032983	-0.2479580	0.0825017
13.7475223	0.4759003	-2.9636585	-0.3887105	-0.1893405	-0.3127199	0.6903239	-0.2983400	-0.2431565	0.0816830
13.8475116	0.4648069	-3.0031968	-0.3899282	-0.1936231	-0.3051021	0.6892609	-0.2900131	-0.2356706	0.0696379
13.9475244	0.4560232	-3.0398165	-0.3804443	-0.1961816	-0.2927179	0.6895981	-0.2839649	-0.2310336	0.0568755
14.0475469	0.4458022	-3.0810996	-0.3743975	-0.1980397	-0.2784996	0.6899859	-0.2835405	-0.2274626	0.0384914
14.1475384	0.4396165	-3.1080269	-0.3807461	-0.1984209	-0.2690862	0.6902163	-0.2884553	-0.2221086	0.0123002
14.2475896	0.4295341	-3.1448828	-0.3824643	-0.1972320	-0.2699042	0.6901532	-0.3011646	-0.2221370	0.0058821
14.3475016	0.4167213	-3.1872247	-0.3835227	-0.1948624	-0.2819887	0.6901750	-0.3167366	-0.2259883	0.0081825
14.4476454	0.4090275	-3.2194060	-0.3909502	-0.1909224	-0.3014252	0.6898943	-0.3271216	-0.2299224	0.0084732
14.5475226	0.3979474	-3.2594723	-0.4014390	-0.1865889	-0.3194439	0.6887845	-0.3284046	-0.2338350	0.0110304
14.6475249	0.3905764	-3.2793559	-0.3919685	-0.1822514	-0.3319667	0.6864994	-0.3184827	-0.2366304	0.0260745
14.7475185	0.3820355	-3.3112104	-0.3929940	-0.1796879	-0.3373022	0.6835273	-0.3093582	-0.2376203	0.0324107
14.8475607	0.3736258	-3.3441452	-0.3936089	-0.1798603	-0.3352075	0.6809125	-0.3018925	-0.2391027	0.0410998
14.9475663	0.3666125	-3.3717748	-0.3904905	-0.1827938	-0.3277025	0.6795253	-0.2976715	-0.2389337	0.0522898
15.0476902	0.3588100	-3.4014459	-0.3868448	-0.1871956	-0.3169459	0.6793429	-0.2973064	-0.2389600	0.0620420
15.1475453	0.3480131	-3.4390439	-0.3855105	-0.1913879	-0.3048532	0.6793560	-0.3019180	-0.2378540	0.0632895
15.2475448	0.3368019	-3.4773391	-0.3832779	-0.1937067	-0.2942129	0.6785650	-0.3075217	-0.2358962	0.0579161
15.3475259	0.3256554	-3.5137736	-0.3827972	-0.1936411	-0.2874306	0.6766276	-0.3123531	-0.2322821	0.0460342
15.4476247	0.3134271	-3.5525819	-0.3832276	-0.1922534	-0.2853004	0.6737540	-0.3172739	-0.2311049	0.0332942
15.5475369	0.2988081	-3.5954798	-0.3819698	-0.1908710	-0.2880457	0.6711264	-0.3164177	-0.2318745	0.0256940
15.6476621	0.2872081	-3.6337613	-0.3842161	-0.1903527	-0.2940966	0.6697006	-0.3095439	-0.2313669	0.0193381
15.7475200	0.2763992	-3.6700920	-0.3858538	-0.1908914	-0.3007502	0.6701550	-0.3028535	-0.2331051	0.0195470
15.8475487	0.2644022	-3.7121769	-0.3858482	-0.1917841	-0.3066848	0.6719243	-0.3005463	-0.2360883	0.0216499
15.9479181	0.2567204	-3.7445613	-0.3811179	-0.1926862	-0.3094776	0.6730500	-0.3077519	-0.2387005	0.0293072
16.0475346	0.2441790	-3.7830973	-0.3889655	-0.1920147	-0.3109720	0.6728497	-0.3218606	-0.2393314	0.0292396
16.1475325	0.2313570	-3.8254941	-0.3909502	-0.1897353	-0.3119235	0.6709966	-0.3334435	-0.2392778	0.0347564
16.2475154	0.2206982	-3.8596165	-0.3893087	-0.1872604	-0.3116298	0.6686562	-0.3325137	-0.2398715	0.0408972
16.3475110	0.2088840	-3.8950222	-0.3874612	-0.1852508	-0.3087412	0.6662964	-0.3242187	-0.2403656	0.0463063
16.4475005	0.1969040	-3.9383864	-0.3929902	-0.1850185	-0.3025497	0.6642558	-0.3117624	-0.2401580	0.0474259
16.5475121	0.1839108	-3.9739900	-0.3887536	-0.1859888	-0.2951729	0.6631456	-0.2967852	-0.2417720	0.0557801
16.6475095	0.1749726	-4.0105398	-0.3892292	-0.1888798	-0.2868211	0.6630057	-0.2833570	-0.2428887	0.0568640
16.7474885	0.1669550	-4.0451666	-0.3889086	-0.1930447	-0.2792962	0.6641452	-0.2760761	-0.2408976	0.0563066
16.8475236	0.1536133	-4.0864423	-0.3832326	-0.1968894	-0.2745860	0.6665903	-0.2749472	-0.2359728	0.0574122
16.9475149	0.1424780	-4.1253644	-0.3798351	-0.2003513	-0.2745213	0.6703359	-0.2777740	-0.2304403	0.0490759
17.0474813	0.1326425	-4.1605231	-0.3787045	-0.2022885	-0.2801834	0.6751140	-0.2839169	-0.2255149	0.0368863
17.1475108	0.1241978	-4.1872390	-0.3842969	-0.2027115	-0.2901331	0.6805873	-0.2923046	-0.2161385	0.0218143
17.2474742	0.1137727	-4.2244764	-0.3854770	-0.2016576	-0.3031242	0.6863784	-0.3006990	-0.2104247	0.0136598
17.3475118	0.1052160	-4.2588118	-0.3869193	-0.1996167	-0.3160061	0.6912624	-0.3081609	-0.2091810	0.0062974
17.4476421	0.1111264	-4.2833249	-0.3811392	-0.1972348	-0.3249646	0.6946156	-0.3079660	-0.2146611	0.0090656
17.5474803	0.0872260	-4.3349283	-0.3950229	-0.1952218	-0.3280854	0.6968636	-0.3047850	-0.2222068	0.0037520
17.6476600	0.0831266	-4.3649577	-0.3972478	-0.1938673	-0.3263950	0.6987482	-0.2920628	-0.2321142	0.0072994
17.7477455	0.0843769	-4.3908298	-0.3948665	-0.1934468	-0.3207548	0.7015509	-0.2696588	-0.2402036	0.0178322
17.8475218	0.0894094	-4.4132754	-0.3859912	-0.1942713	-0.3094931	0.7054438	-0.2448500	-0.2438923	0.0367321
17.9475917	0.0806130	-4.4529670	-0.3948751	-0.1958420	-0.2961463	0.7094206	-0.2335583	-0.2427333	0.0394911
18.0476841	0.0753251	-4.4879656	-0.3903149	-0.1971758	-0.2847739	0.7122924	-0.2364804	-0.2406244	0.0428464
18.1475282	0.0655052	-4.5317604	-0.3825437	-0.1977205	-0.2795936	0.7138089	-0.2464597	-0.2393971	0.0451921
18.2477225	0.0570284	-4.5713129	-0.3785150	-0.1972420	-0.2824731	0.7149524	-0.2556293	-0.2378706	0.0410531
18.3475374	0.0601176	-4.5936270	-0.3850202	-0.1962037	-0.2912245	0.7169413	-0.2572829	-0.2344369	0.0219440
18.4474796	0.0512639	-4.6357276	-0.3827861	-0.1945715	-0.3016547	0.7210055	-0.2574830	-0.2288897	0.0038296
18.5475389	0.0471080	-4.6652801	-0.3824393	-0.1949161	-0.3080019	0.7254043	-0.2571984	-0.2250668	-0.0067957
18.6475343	0.0441256	-4.6963309	-0.3826393	-0.1954438	-0.3111144	0.7308962	-0.2572693	-0.2238508	-0.0079795
18.7475228	0.0418951	-4.7281204	-0.3827861	-0.1964859	-0.3109745	0.7364898	-0.2585287	-0.2238052	0.0006885
18.8475031	0.0399870	-4.7571864	-0.3822404	-0.1970430	-0.3102721	0.7404663	-0.2574603	-0.2250999	0.0135957
18.9477046	0.0317047	-4.7946353	-0.3898468	-0.1966687	-0.3113580	0.7438160	-0.2550465	-0.2270570	0.0183038
19.0477166	0.0289086	-4.8275470	-0.3889086	-0.1950439	-0.3149145	0.7459342	-0.2493304	-0.2279785	0.0242336
19.1476966	0.0251172	-4.8596208	-0.3902616	-0.1934454	-0.3193965	0.7465664	-0.2467087	-0.2270862	0.0208772
19.2475254	0.0229779	-4.8907106	-0.3897521	-0.1923645	-0.3242682	0.7461675	-0.2493436	-0.2304645	0.0206890
19.3475167	0.0261262	-4.9122847	-0.3838065	-0.1929992	-0.3286633	0.7449055	-0.2497971	-0.2348253	0.0282280
19.4475192	0.0095096	-4.9640852	-0.3943073	-0.1957024	-0.3311349	0.7443082	-0.2528404	-0.2376479	0.0282483
19.5475021	0.0183642	-4.9838452	-0.3869374	-0.1990428	-0.3300712	0.7448534	-0.2449502	-0.2384671	0.0380757
19.6476424	0.0180338	-5.0152635	-0.3847938	-0.2019342	-0.3249673	0.7473580	-0.2341733	-0.2350043	0.0402120
19.7474954	0.0145091	-5.0472488	-0.3847041	-0.2039201	-0.3159040	0.7515389	-0.2311448	-0.2296820	0.0339571
19.8475059	0.0200327	-5.0820931	-0.3766754	-0.2047203	-0.3061261	0.7559045	-0.2388849	-0.2269212	0.0268475
19.9476877	0.0173455	-5.1187116	-0.3747107	-0.2045976	-0.2989244	0.7594363	-0.2507022	-0.2253245	0.0185888
20.0475185	0.0132676	-5.1515438	-0.3762226	-0.2038359	-0.2965769	0.7623471	-0.2604004	-0.2224367	0.0124623
20.1475149	0.0088310	-5.1853681	-0.3788717	-0.2024672	-0.3007566	0.7650183	-0.2701448	-0.2233152	0.0166144
20.2476257	0.0016384	-5.2247437	-0.3778012	-0.2002559	-0.3106601	0.7668178	-0.2787404	-0.2271815	0.0292254
20.3475169	-0.0042479	-5.2589634	-0.3895094	-0.1971427	-0.3240148	0.7673528	-0.2860442	-0.2330129	0.0300655
20.4475308	-0.0093560	-5.2947123	-0.3898565	-0.1938331	-0.3364912	0.7665985	-0.2869853	-0.2399467	0.0368625
20.5475113	-0.0094001	-5.3220435	-0.3870373	-0.1914581	-0.3440938	0.7655376	-0.2793757	-0.2427379	0.0384486
20.6475105	-0.0242732	-5.3767495	-0.3947533	-0.1909130	-0.3433419	0.7652791	-0.2674428	-0.2422157	0.0264216
20.7477494	-0.0091358	-5.3778648	-0.3855268	-0.1931213	-0.3360872	0.7670406	-0.2442571	-0.2439830	0.0294002
20.8475208	-0.0142028	-5.4184526	-0.3889622	-0.1978263	-0.3233243	0.7708612	-0.2280629	-0.2449568	0.0252354
20.9475318	-0.0133449	-5.4511592	-0.3856004	-0.2040727	-0.3092018	0.7757764	-0.2243088	-0.2426670	0.0332541
21.0474924	-0.0150446	-5.4870580	-0.3838065	-0.2125604	-0.2943108	0.7806449	-0.2306997	-0.2354033	0.0478945
21.1475139	-0.0152908	-5.5069103	-0.3844290	-0.2167039	-0.2822232	0.7850654	-0.2359192	-0.2213159	0.0484716
21.2475466	-0.0208084	-5.5465060	-0.3810919	-0.2199280	-0.2773238	0.7902528	-0.2421830	-0.2068099	0.0367036
21.3475151	-0.0298192	-5.5973291	-0.3776841	-0.2189136	-0.2798824	0.7966952	-0.2467754	-0.1965268	0.0150255
21.4474857	-0.0279188	-5.6067872	-0.3845170	-0.2161423	-0.2873955	0.8024820	-0.2467939	-0.1914624	-0.0116277
21.5475674	-0.0443283	-5.6848482	-0.3746669	-0.2121035	-0.2976907	0.8088650	-0.2450920	-0.1975781	-0.0192789
21.6476931	-0.0427643	-5.7041165	-0.3868678	-0.2088333	-0.3066785	0.8148214	-0.2356368	-0.2060701	-0.0308836
21.7476273	-0.0421352	-5.7335437	-0.3908145	-0.2074178	-0.3139411	0.8203047	-0.2154346	-0.2200745	-0.0184544
21.8474908	-0.0388503	-5.7634190	-0.3921203	-0.2065833	-0.3170762	0.8255152	-0.1949050	-0.2296733	-0.0036409
21.9474862	-0.0300442	-5.7883969	-0.3868646	-0.2058094	-0.3176233	0.8303259	-0.1804057	-0.2362417	0.0135306
22.0476326	-0.0307156	-5.8214353	-0.3919677	-0.2043392	-0.3174685	0.8339870	-0.1802621	-0.2325819	0.0116759
22.1475116	-0.0226127	-5.8453911	-0.3860631	-0.2021550	-0.3162617	0.8359708	-0.1865474	-0.2323770	0.0068969
22.2478925	-0.0188404	-5.8763485	-0.3879547	-0.1997730	-0.3165106	0.8368188	-0.1944587	-0.2375872	-0.0036234
22.3474796	-0.0145976	-5.9031268	-0.3873703	-0.1983289	-0.3181548	0.8381003	-0.1917578	-0.2444697	-0.0056600
22.4475471	-0.0092968	-5.9321458	-0.3876404	-0.1990617	-0.3195965	0.8414372	-0.1782698	-0.2476518	-0.0035762
22.5476654	-0.0022270	-5.9519904	-0.3807376	-0.2017020	-0.3180685	0.8474756	-0.1612674	-0.2463158	0.0055263
22.6476600	0.0011490	-5.9874009	-0.3899377	-0.2046942	-0.3135030	0.8545701	-0.1595376	-0.2419971	0.0033561
22.7475036	0.0113911	-6.0134493	-0.3782005	-0.2068656	-0.3091371	0.8612011	-0.1563893	-0.2334416	0.0114878
22.8475046	0.0175793	-6.0414541	-0.3766481	-0.2082347	-0.3072406	0.8669065	-0.1580786	-0.2231586	0.0055101
22.9475049	0.0234872	-6.0632466	-0.3810550	-0.2099496	-0.3073728	0.8717902	-0.1575542	-0.2147695	-0.0069550
23.0475325	0.0295505	-6.0912626	-0.3807545	-0.2123990	-0.3094466	0.8772060	-0.1559478	-0.2103204	-0.0167428
23.1475510	0.0357275	-6.1158614	-0.3841515	-0.2151438	-0.3109393	0.8835493	-0.1493153	-0.2074522	-0.0280305
23.2475185	0.0442168	-6.1413539	-0.3861205	-0.2175879	-0.3118074	0.8907144	-0.1367844	-0.2027975	-0.0370414
23.3475200	0.0583553	-6.1687583	-0.3838310	-0.2187767	-0.3127811	0.8972899	-0.1335705	-0.2011093	-0.0383890
23.4476590	0.0630906	-6.1894067	-0.3905423	-0.2175953	-0.3136958	0.9028737	-0.1338187	-0.2008405	-0.0466293