# Time	Input
-4.6996782	0.0000000
-4.5995643	0.0000000
-4.4996214	0.0000000
-4.3995758	0.0000000
-4.2995958	0.0000000
-4.1996285	0.0000000
-4.0995707	0.0000000
-3.9990607	0.0000000
-3.8996595	0.0000000
-3.7996188	0.0000000
-3.6996511	0.0000000
-3.5996416	0.0000000
-3.4996211	0.0000000
-3.3996900	0.0000000
-3.2997307	0.0000000
-3.1995474	0.0000000
-3.0996447	0.0000000
-2.9996511	0.0000000
-2.8995889	0.0000000
-2.7996931	0.0000000
-2.6996009	0.0000000
-2.5996490	0.0000000
-2.4997028	0.0000000
-2.3995487	0.0000000
-2.2996979	0.0000000
-2.1996396	0.0000000
-2.0996393	0.0000000
-1.9996472	0.0000000
-1.8995837	0.0000000
-1.7995423	0.0000000
-1.6996705	0.0000000
-1.5996554	0.0000000
-1.4996421	0.0000000
-1.3996083	0.0000000
-1.2996544	0.0000000
-1.1996864	0.0000000
-1.0996319	0.0000000
-0.9996751	0.0000000
-0.8995476	0.0000000
-0.7996380	0.0000000
-0.6996790	0.0000000
-0.5996649	0.0000000
-0.4996250	0.0000000
-0.3995643	0.0000000
-0.2996390	0.0000000
-0.1995953	0.0000000
-0.0996531	0.0000000
0.0003034	3.3500056
0.1002806	-2.1807346
0.2004017	-3.2921553
0.3002826	-3.7033756
0.4003356	-3.7706256
0.5004014	-3.5429127
0.6004111	-2.8851209
0.7003556	-2.0714018
0.8004119	-1.3428249
0.9003937	-0.4704154
1.0003049	0.4476538
1.1003471	1.5075579
1.2002972	2.3328052
1.3004273	2.8813865
1.4003069	3.2713866
1.5004032	3.1559560
1.6005594	3.2052307
1.7003502	3.0204115
1.8003538	2.5085621
1.9003236	2.2666440
2.0004155	2.7028408
2.1004252	3.4082870
2.2003535	4.2348866
2.3003648	5.1563993
2.4003722	5.5040779
2.5003937	5.5040927
2.6002847	4.7926569
2.7004196	4.2380147
2.8003469	4.6705432
2.9002243	5.4329367
3.0003799	5.4132414
3.1004140	4.5195765
3.2003628	3.0922172
3.3004593	2.4084773
3.4004047	2.3311734
3.5004073	2.9183440
3.6004616	4.0122633
3.7002995	5.1683097
3.8002962	5.9401536
3.9003034	6.5859184
4.0003128	6.6966724
4.1003249	6.0430102
4.2003753	5.1658483
4.3003822	4.5619602
4.4003021	4.2192473
4.5003663	3.9537861
4.6003789	4.1232800
4.7003832	3.7824812
4.8003039	3.3250546
4.9004052	3.0426009
5.0003692	3.5870755
5.1002737	4.1468158
5.2003773	4.8013783
5.3002844	5.4448419
5.4003169	6.0030899
5.5002921	6.0977721
5.6004301	5.6266737
5.7004201	4.8057132
5.8003584	4.2293692
5.9002675	4.4314566
6.0003963	5.0892792
6.1002872	5.6566129
6.2003953	5.2994142
6.3005716	3.9389803
6.4004306	2.1950252
6.5003832	1.6119039
6.6004093	2.1486013
6.7003894	3.5627151
6.8002893	4.9006891
6.9003756	5.5571575
7.0003812	5.8874750
7.1003113	5.8348818
7.2004104	5.4198976
7.3004326	4.6848722
7.4003633	4.0124178
7.5003389	3.3524618
7.6003459	3.8282099
7.7003392	3.9589710
7.8003402	4.0841045
7.9003814	4.9660144
8.0002895	5.8593640
8.1004204	6.4578938
8.2003571	6.4367175
8.3003267	6.1534500
8.4002988	5.2889123
8.5002849	4.9116297
8.6004012	4.4586420
8.7004022	4.4818840
8.8003924	4.8433714
8.9004019	5.1595035
9.0004534	5.3558154
9.1003405	5.7192483
9.2002307	6.2515249
9.3002895	7.0930033
9.4003973	7.7995596
9.5003656	7.8494897
9.6003269	7.0750599
9.7003576	5.6741958
9.8003873	4.5618825
9.9003116	3.8518438
10.0004728	4.2941427
10.1003290	5.4998236
10.2003420	6.3563704
10.3002877	6.5069079
10.4003016	5.9025393
10.5003886	5.7997041
10.6003983	5.8619227
10.7003876	6.4926329
10.8005043	6.3354793
10.9004201	5.2358847
11.0004122	3.7927365
11.1004426	2.8746243
11.2004605	2.7920828
11.3003715	3.5941978
11.4004636	4.5976229
11.5003277	5.5897903
11.6002998	6.6039848
11.7005696	7.5248494
11.8004250	8.4382248
11.9004168	8.5862532
12.0003233	7.8802452
12.1004137	5.9904819
12.2004022	4.1604533
12.3004119	2.9389219
12.4004188	2.7557290
12.5004411	3.5728254
12.6003576	4.9465675
12.7003494	6.6446033
12.8004332	8.0549030
12.9004052	9.4286785
13.0004434	9.7762709
13.1004101	8.9100618
13.2003830	7.6634130
13.3003023	6.4633808
13.4003868	6.0658283
13.5003763	6.2646813
13.6003901	6.3494525
13.7003402	6.3544359
13.8003497	6.5082359
13.9004367	7.1470652
14.0003126	7.9936538
14.1003796	8.6173048
14.2003822	8.7814455
14.3005691	8.1110849
14.4003507	7.4431429
14.5003185	7.2776933
14.6003978	7.2982955
14.7004022	7.9175620
14.8003297	8.2499838
14.9003599	8.1910028
15.0002952	7.6769547
15.1003645	6.7292333
15.2003523	5.7243962
15.3004029	4.9438324
15.4002678	5.2701430
15.5004042	6.0776901
15.6003034	7.9538488
15.7003651	9.8239155
15.8007176	11.2489281
15.9004091	11.3364925
16.0004040	9.7857714
16.1004050	7.7382431
16.2003494	5.9271955
16.3003620	5.4169397
16.4004815	6.0776134
16.5003935	7.2391801
16.6003453	8.6421471
16.7003656	9.3963375
16.8003768	9.5909100
16.9003274	9.5616102
17.0004024	9.4423180
17.1004140	9.1065884
17.2003320	8.5089998
17.3003359	7.7153792
17.4003668	7.0942693
17.5003410	7.0655160
17.6003748	7.4762073
17.7003976	8.1092129
17.8002931	8.9950123
17.9003277	9.7888250
18.0004229	9.8980608
18.1005110	10.1555748
18.2003238	10.1845865
18.3003489	10.0250835
18.4004012	9.9262314
18.5003973	9.6347075
18.6003103	9.3465614
18.7004280	9.0827847
18.8004114	8.8566418
18.9003008	8.6380424
19.0003689	9.0584621
19.1004480	9.7506971
19.2004157	10.7686424
19.3004375	11.4742136
19.4003640	11.9679966
19.5002811	12.2724085
19.6003259	12.3434143
19.7004178	12.2373438
19.8003180	11.9453716
19.9002921	11.8098974
20.0003809	11.6974897
20.1003177	11.6177549
20.2004024	11.5184994
20.3004390	11.4620476
20.4003482	11.2610617
20.5004383	11.0057135
20.6004227	10.9788094
20.7003640	10.6833344
20.8003407	10.5987387
20.9003768	10.7812290
21.0004334	11.1534214
21.1003354	11.7661762
21.2003100	12.1928587
21.3003279	12.6917467
21.4004029	12.9625130
21.5003860	13.0250645
21.6003881	13.0017118
21.7003786	13.0630112
21.8006548	12.3113337
21.9005056	11.6647081
22.0003922	11.1465816
22.1003837	11.3090496
22.2002534	11.5476761
22.3003533	11.8794975
22.4004188	12.0909290
22.5004045	12.3600216
22.6003338	12.3997841
22.7004196	11.9756317
22.8004262	11.3229246
22.9004188	11.0815592
23.0004006	11.3805094
23.1003922	12.2377110
23.2003507	12.8185301
23.3003116	12.6091347
23.4004278	11.9367180
23.5004050	11.6402950
23.6003374	11.1975346
23.7003548	10.8606071
23.8005604	10.6073847
23.9003451	10.7054005
24.0003983	11.1220064
24.1004198	11.7801104
24.2002714	12.2499056
24.3003868	12.4431677
24.4003333	12.3419409
24.5004022	11.9742184
24.6003735	11.5844870
24.7004362	11.3352861
24.8002924	11.5264187
24.9004657	11.8522100
25.0003441	12.3302870
25.1003648	12.6579189
25.2003228	12.6221581
25.3003156	12.0763140
25.4004283	11.3100090
25.5004308	10.9650784
25.6003277	10.9802799
25.7003348	11.7613459
25.8003556	12.5467520
25.9003625	13.0111752
26.0004178	12.8966484
26.1003727	12.5515261
26.2003679	11.8914042
26.3004099	11.2524757
26.4004109	11.4678535
26.5004221	12.0184536
26.6004759	13.1276445
26.7005778	13.9949522
26.8003899	14.6621342
26.9003057	14.6920853
27.0004931	13.8100128
27.1003904	12.6063719
27.2003507	11.3930168
27.3003136	11.1542587
27.4004275	11.5749540
27.5003566	12.0930958
27.6004209	12.5407143
27.7003858	12.4416294
27.8003917	12.4712391
27.9003412	12.9298353
28.0004595	14.0724134
28.1005414	14.4824677
28.2003267	14.8053455
28.3003290	15.1801243
28.4004196	15.6025019
28.5003940	16.0618973
28.6003228	15.9846706
28.7007485	15.3711901
28.8003725	14.7749147
28.9003082	14.5389099
29.0003144	14.9814396
29.1003525	14.9948606
29.2005094	14.5581303
29.3002824	13.6976748
29.4003607	13.1463881
29.5003034	13.0957642
29.6002683	13.6992016
29.7004375	15.3177309
29.8003136	17.0132961
29.9003564	17.5209808
29.9448246	0.0000000
