# Time	Input
-9.8408927	0.0000000
-9.8392026	0.0000000
-9.8001408	0.0000000
-9.7000788	0.0000000
-9.5999265	0.0000000
-9.5000983	0.0000000
-9.4000087	0.0000000
-9.3000893	0.0000000
-9.2000338	0.0000000
-9.1000407	0.0000000
-9.0001103	0.0000000
-8.9001667	0.0000000
-8.7996652	0.0000000
-8.7000791	0.0000000
-8.6000141	0.0000000
-8.5000548	0.0000000
-8.4001741	0.0000000
-8.3000671	0.0000000
-8.2001236	0.0000000
-8.1000776	0.0000000
-8.0000553	0.0000000
-7.9000668	0.0000000
-7.8000284	0.0000000
-7.7001239	0.0000000
-7.6001449	0.0000000
-7.5000604	0.0000000
-7.3999562	0.0000000
-7.3000622	0.0000000
-7.2001185	0.0000000
-7.1000389	0.0000000
-7.0000786	0.0000000
-6.9001308	0.0000000
-6.8000415	0.0000000
-6.7000620	0.0000000
-6.6001055	0.0000000
-6.5000781	0.0000000
-6.4000509	0.0000000
-6.3000873	0.0000000
-6.1999841	0.0000000
-6.1000753	0.0000000
-6.0000463	0.0000000
-5.9000689	0.0000000
-5.8000963	0.0000000
-5.7000965	0.0000000
-5.6001743	0.0000000
-5.5001380	0.0000000
-5.4001526	0.0000000
-5.3000796	0.0000000
-5.2001206	0.0000000
-5.0996841	0.0000000
-4.9987658	0.0000000
-4.9000095	0.0000000
-4.7996247	0.0000000
-4.7001201	0.0000000
-4.5996360	0.0000000
-4.5000648	0.0000000
-4.4001439	0.0000000
-4.3000673	0.0000000
-4.1996204	0.0000000
-4.0999931	0.0000000
-4.0000970	0.0000000
-3.9000753	0.0000000
-3.8000901	0.0000000
-3.7000740	0.0000000
-3.5995628	0.0000000
-3.5000983	0.0000000
-3.4000696	0.0000000
-3.3000543	0.0000000
-3.2001155	0.0000000
-3.1000699	0.0000000
-3.0001265	0.0000000
-2.9000246	0.0000000
-2.8001190	0.0000000
-2.7000617	0.0000000
-2.6000486	0.0000000
-2.4994112	0.0000000
-2.3998518	0.0000000
-2.3001283	0.0000000
-2.1997878	0.0000000
-2.0999585	0.0000000
-2.0000691	0.0000000
-1.9000466	0.0000000
-1.8000387	0.0000000
-1.7000755	0.0000000
-1.6000727	0.0000000
-1.5000302	0.0000000
-1.4001766	0.0000000
-1.2996119	0.0000000
-1.1998098	0.0000000
-1.0995594	0.0000000
-1.0000579	0.0000000
-0.9001347	0.0000000
-0.8001011	0.0000000
-0.6996826	0.0000000
-0.6000612	0.0000000
-0.5000970	0.0000000
-0.4000141	0.0000000
-0.3001446	0.0000000
-0.2000028	0.0000000
-0.1001221	0.0000000
0.0000000	9.3664141
0.0999181	2.7279758
0.1999432	1.4246860
0.3000056	1.1711110
0.3999974	0.9764927
0.4999439	1.0109143
0.5999214	1.0547814
0.7004462	1.0906161
0.8001434	1.0940564
0.9000013	1.1153749
0.9999995	1.1189530
1.0998764	1.1297275
1.1999053	1.1585429
1.2999373	1.1695533
1.3998582	1.2041831
1.4999521	1.2472187
1.6001408	1.2677659
1.6999578	1.3060942
1.7999168	1.3302200
1.8999419	1.3392754
1.9998845	1.3471073
2.0999132	1.3632685
2.1998858	1.3667589
2.2999665	1.3825277
2.4003968	1.4107074
2.4998897	1.4175540
2.5999117	1.4574529
2.6998996	1.4851526
2.8000207	1.5101762
2.9003428	1.5365828
2.9998331	1.5516076
3.0997949	1.5719656
3.1999383	1.5906165
3.3002611	1.6082202
3.3999949	1.6344765
3.4998979	1.6339029
3.5999962	1.6486192
3.6998124	1.6695153
3.7999332	1.6651009
3.8998815	1.7040275
3.9998223	1.7192531
4.0999060	1.7247238
4.2003679	1.7563746
4.2999759	1.7723700
4.3998474	1.7795169
4.4999135	1.8205583
4.5998154	1.8373585
4.6999304	1.8243952
4.7999020	1.8481853
4.8998723	1.8555721
4.9999534	1.8525589
5.0998671	1.8248552
5.1998938	1.7883838
5.2998894	1.6956712
5.3999263	1.6018882
5.4998894	1.5361494
5.6003082	1.4413720
5.6999214	1.3160076
5.7999094	1.1974430
5.8999918	1.0541543
5.9999181	0.8958222
6.0999270	0.7481776
6.1999217	0.5816160
6.2999206	0.4165067
6.3998702	0.2629125
6.4998633	0.0823390
6.5999521	-0.0926264
6.7000031	-0.2799176
6.8003039	-0.4713696
6.8998444	-0.6549661
6.9999427	-0.8714937
7.1002322	-1.1153355
7.1999470	-1.3391900
7.3000056	-1.6051196
7.3999724	-1.8626963
7.4999119	-2.1143901
7.5998554	-2.3936863
7.7001700	-2.6899037
7.7999772	-2.9545684
7.8999839	-3.2615845
7.9999675	-3.5182893
8.0999235	-3.7201006
8.1999434	-3.9547145
8.2999255	-4.2770777
8.3998979	-4.4620638
8.5000443	-4.7430539
8.5999355	-5.0664687
8.6999636	-5.1832743
8.7999532	-5.3726578
8.8998021	-5.7922993
9.0000210	-5.8687201
9.0999219	-6.0864692
9.1999462	-6.5619755
9.3000079	-6.6582308
9.3999747	-6.8460212
9.4999903	-7.3908858
9.5999224	-7.5036345
9.6999601	-7.6450176
9.7999293	-8.0429983
9.9001508	-8.5551329
9.9999698	-8.5015774
10.0999508	-8.9029150
10.2004439	-9.4330873
10.3001626	-9.2727995
10.4000282	-9.6627102
10.5002529	-10.2158327
10.5999900	-9.9657335
10.6998984	-10.3859911
10.8003786	-10.9544029
10.9000896	-10.9998798
10.9999299	-10.8315306
11.0999665	-11.6501198
11.1999273	-11.6765242
11.2999977	-11.4795170
11.3999537	-12.3579483
11.4999695	-12.3612843
11.5998930	-12.1255684
11.6998794	-13.0314770
11.7999575	-12.9654779
11.9004536	-12.6449137
11.9999539	-13.6191225
12.0999132	-13.5220146
12.2003057	-13.1579418
12.3007084	-14.1803617
12.3999391	-14.0732613
12.4998359	-13.6545343
12.6004035	-14.6917524
12.6999624	-14.5138292
12.7998807	-14.0524607
12.8999757	-15.1305084
13.0000522	-14.9679279
13.1003843	-14.4952765
13.2000343	-15.6404657
13.3001004	-14.9855995
13.4002862	-15.3499527
13.4999442	-16.2299328
13.6000509	-15.5936871
13.7001546	-15.8029385
13.8001129	-16.0897579
13.9000136	-16.5080910
13.9999360	-16.1684647
14.0999145	-16.4070606
14.1999793	-16.8804493
14.3000069	-16.4256382
14.3998574	-16.7440567
14.4999521	-17.3546333
14.5999160	-16.7317219
14.6999219	-17.0841599
14.7999662	-17.7440090
14.8999419	-16.7929420
15.0000113	-17.1117935
15.0998840	-17.8311081
15.1999183	-16.7247410
15.2998784	-17.1519547
15.4003553	-17.9089222
15.4999140	-16.8414955
15.5998810	-17.2729950
15.7004989	-18.0246544
15.7997901	-16.9258652
15.8999862	-17.3065319
16.0003095	-18.0516644
16.1000067	-16.9661312
16.1999770	-17.3539848
16.3003758	-18.0445671
16.4001093	-16.9334621
16.5000438	-17.2652493
16.5999158	-17.9164143
16.6999263	-16.7592659
16.7999265	-17.0881672
16.9001700	-17.7038708
16.9999734	-17.1135845
17.0999547	-16.2011604
17.1998464	-17.1767235
17.2999155	-16.5983829
17.3999506	-15.6506252
17.4999114	-16.6218472
17.5998968	-16.0053806
17.7003415	-14.9928026
17.8000492	-15.2035036
17.8999542	-15.7524929
17.9998981	-14.2422428
18.0999565	-14.3338766
18.1999032	-14.8059711
18.2998116	-13.1467466
18.3999813	-13.2246437
18.4999519	-13.0404329
18.6003302	-12.3893747
18.7000120	-12.0610781
18.7999258	-11.9123163
18.8999135	-11.0266867
18.9998364	-10.7669268
19.0999186	-10.7159395
19.2001966	-9.6866999
19.3000092	-9.4531431
19.3999455	-9.5157194
19.4998454	-8.2591085
19.5999816	-8.0563803
19.6999337	-8.1620417
19.7999468	-7.5021672
19.8999293	-6.0623417
19.9998838	-6.6106195
20.1000141	-5.8226867
20.1999951	-4.5442939
20.3003446	-5.2097282
20.3999716	-4.3553152
20.4998912	-3.1457629
20.6003702	-3.7824948
20.7000929	-2.9774373
20.7999688	-1.8129293
20.8998548	-2.4496405
20.9998474	-1.6745133
21.0998403	-0.6673095
21.1999416	-1.2286636
21.3000364	-0.5661828
21.3999460	0.3667203
21.4999734	0.4274407
21.5999629	0.3448749
21.6999672	1.5686165
21.7999406	1.8075180
21.8998779	1.7971050
21.9999411	3.0765915
22.0999030	3.3131948
22.1999744	3.3162088
22.2998907	4.5604949
22.3999363	4.7874465
22.4999473	4.8284121
22.6000563	5.6111398
22.6999608	6.5695357
22.7999181	6.3813310
22.8998973	7.1248679
22.9999155	7.9720984
23.0999022	7.7428479
23.1998889	8.3217478
23.2998039	9.0334740
23.4004739	9.1653481
23.5000399	9.3332539
23.5998671	10.1598787
23.6999519	10.3780146
23.8003031	10.6387453
23.9000591	11.3612108
23.9999002	11.5352955
24.0997860	11.8074608
24.1999060	12.4113169
24.2999437	12.6675615
24.4002957	12.8786411
24.4998968	13.4416418
24.5998303	13.7339849
24.7003039	13.9553165
24.7999542	14.4207821
24.8999475	14.7043695
25.0003384	14.9774065
25.0999798	15.3751173
25.1999665	15.6036329
25.2998748	15.8826771
25.3998792	16.0715275
25.4998963	16.2927666
25.5997942	16.6086502
25.6999588	16.6839199
25.7999613	16.9247265
25.8999168	17.2580719
25.9999014	17.1714268
26.1001039	17.4012108
26.1998715	17.7312336
26.2999022	17.5590076
26.3999411	17.5990658
26.4999025	18.0171394
26.5999332	17.7334023
26.6999672	17.7047653
26.7998779	18.2165489
26.8998369	17.9329472
26.9999437	17.7741165
27.1000328	18.3384094
27.1999862	18.0132160
27.2999534	17.7156506
27.3998441	18.3890553
27.4999885	18.0848808
27.5998920	17.6276703
27.6997916	18.3295135
27.7999334	17.9918633
27.8999841	17.3471336
27.9999642	17.5846367
28.1004150	18.0727787
28.2000195	17.0996456
28.2999985	17.2618999
28.3998784	17.7974758
28.4999439	16.7212601
28.5999854	16.8926048
28.7000471	17.3718719
28.7999148	16.2321625
28.9000292	16.3643703
28.9998346	16.8326931
29.0999608	15.6616573
29.1998705	15.8124056
29.2999488	16.2772560
29.3999470	15.6536598
29.4999009	14.7765141
29.6004347	15.6128941
29.6999683	15.0592957
29.7999398	14.1965141
29.8999803	14.9948320
29.9998707	0.0000000
30.0742607	0.0000000
