# Time	Input
-9.9184899	0.0000000
-9.9176256	0.0000000
-9.9001600	0.0000000
-9.8001060	0.0000000
-9.7000468	0.0000000
-9.5998559	0.0000000
-9.4998461	0.0000000
-9.3995789	0.0000000
-9.3000118	0.0000000
-9.2000371	0.0000000
-9.1002063	0.0000000
-9.0001270	0.0000000
-8.8999969	0.0000000
-8.8000013	0.0000000
-8.6999959	0.0000000
-8.5998989	0.0000000
-8.5000796	0.0000000
-8.4000924	0.0000000
-8.2999416	0.0000000
-8.2001288	0.0000000
-8.0999813	0.0000000
-8.0000061	0.0000000
-7.8999347	0.0000000
-7.8001508	0.0000000
-7.7001080	0.0000000
-7.6000911	0.0000000
-7.5000957	0.0000000
-7.4000840	0.0000000
-7.3000904	0.0000000
-7.1997998	0.0000000
-7.1000870	0.0000000
-7.0001935	0.0000000
-6.8999398	0.0000000
-6.8001605	0.0000000
-6.7000975	0.0000000
-6.5999713	0.0000000
-6.5000625	0.0000000
-6.4000195	0.0000000
-6.3000786	0.0000000
-6.2000906	0.0000000
-6.1000177	0.0000000
-6.0000230	0.0000000
-5.9001421	0.0000000
-5.8001178	0.0000000
-5.7000000	0.0000000
-5.5999892	0.0000000
-5.5000125	0.0000000
-5.4000701	0.0000000
-5.2999721	0.0000000
-5.1999969	0.0000000
-5.1000230	0.0000000
-4.9999752	0.0000000
-4.8998546	0.0000000
-4.8000087	0.0000000
-4.7000456	0.0000000
-4.6001559	0.0000000
-4.5001206	0.0000000
-4.4002071	0.0000000
-4.2997514	0.0000000
-4.2001818	0.0000000
-4.1000520	0.0000000
-4.0000832	0.0000000
-3.9000550	0.0000000
-3.8000927	0.0000000
-3.7001170	0.0000000
-3.6001193	0.0000000
-3.5000817	0.0000000
-3.4000136	0.0000000
-3.3001234	0.0000000
-3.2001196	0.0000000
-3.0998935	0.0000000
-3.0001864	0.0000000
-2.8998797	0.0000000
-2.7999698	0.0000000
-2.7000566	0.0000000
-2.6000929	0.0000000
-2.5001354	0.0000000
-2.4001603	0.0000000
-2.3000722	0.0000000
-2.2001341	0.0000000
-2.1001219	0.0000000
-1.9997243	0.0000000
-1.9000433	0.0000000
-1.7999506	0.0000000
-1.6999514	0.0000000
-1.6001027	0.0000000
-1.5001193	0.0000000
-1.4000471	0.0000000
-1.3000927	0.0000000
-1.2001792	0.0000000
-1.1000753	0.0000000
-1.0000625	0.0000000
-0.8998871	0.0000000
-0.7998021	0.0000000
-0.6998218	0.0000000
-0.6000776	0.0000000
-0.5001119	0.0000000
-0.4000924	0.0000000
-0.2998707	0.0000000
-0.2000968	0.0000000
-0.1000159	0.0000000
0.0000077	3.3147871
0.0999803	2.9112973
0.1998999	2.8024859
0.2999572	2.6638517
0.3999424	2.4235241
0.4999721	2.3028204
0.6001592	2.5101461
0.6998659	2.8437481
0.7998761	3.0427775
0.8999854	3.2256134
0.9998405	3.3978193
1.0999741	3.5236392
1.2000028	3.6941552
1.2999777	3.6967323
1.3998899	3.6713006
1.5002189	3.9303405
1.5999529	4.1988773
1.6998049	4.5177646
1.7999475	4.9107733
1.8999795	5.3006387
2.0000292	5.7175198
2.0999529	6.1007380
2.2000924	6.3834186
2.2999370	6.6440792
2.4000241	6.8222299
2.5000225	6.9623709
2.5999340	7.3448977
2.6999631	7.7434545
2.7999895	8.1857557
2.8999247	8.5272322
2.9999852	8.7830191
3.1000412	9.1255684
3.2000591	9.4521828
3.3000535	9.7562304
3.3999634	10.0084562
3.4998766	10.2092228
3.5999073	10.5534382
3.7001139	10.9092541
3.8000248	11.1742992
3.8998013	11.4462051
3.9999818	11.7328167
4.0998602	12.1351318
4.1999357	12.4037037
4.2999759	12.4871874
4.3998359	12.7184162
4.4999547	12.9195318
4.6000399	13.2059584
4.6999081	13.5089903
4.7999629	13.6894331
4.9000041	13.7361870
5.0002985	13.7801285
5.0998764	13.8209772
5.2002071	14.0577898
5.3000087	14.3477631
5.4000276	14.5106440
5.5000978	14.6959372
5.6000253	15.0069170
5.7001743	15.3851261
5.7998705	15.5599613
5.8999475	15.5412683
5.9999168	15.5687075
6.1003515	15.7512312
6.1998802	16.0573235
6.3001521	16.3007431
6.3999491	16.5172997
6.4998674	16.8546162
6.5999585	17.1047859
6.7001170	17.2071533
6.8000799	17.4083767
6.8999662	17.6381321
6.9999790	18.1292496
7.0999066	18.4340401
7.1998966	18.6410713
7.2999624	18.6691341
7.3999903	18.6342144
7.5000499	18.6564140
7.5999424	19.0034561
7.7000148	19.3665752
7.7999767	19.4949989
7.8999644	19.8928413
7.9999014	20.3614655
8.1001188	20.4637833
8.2000991	20.6701355
8.2999368	20.9377251
8.4001421	21.2175961
8.4998643	21.2515335
8.5999020	21.2445946
8.7001623	21.7091217
8.7997983	22.0680485
8.8999555	22.2571640
8.9998559	22.4255581
9.0998740	22.7153320
9.2001183	22.9236641
9.2999956	23.1243935
9.3998884	23.4361649
9.4998740	23.7561264
9.6001728	24.1030083
9.7001836	24.3563328
9.7999096	24.5300293
9.8998339	24.5988998
9.9998228	24.7465630
10.1001984	25.0377636
10.2000561	25.4635487
10.3000013	26.1322155
10.3999037	26.4551964
10.4998592	26.7789879
10.5999560	26.9135952
10.6998356	26.9726048
10.7998863	27.2896309
10.8998917	27.5665550
10.9999148	28.1298656
11.0999357	28.5027065
11.1998638	28.5729256
11.3002435	28.6003132
11.3998843	28.8891087
11.5000046	29.0946865
11.5998643	29.2182465
15.1946455	29.4732723
15.1946483	29.7098751
15.1946514	29.9427929
15.1946606	30.1749744
15.1946678	30.4070072
15.1946706	30.6390114
15.1946732	30.8710098
15.1946819	31.1030064
15.1946844	31.3350048
15.1946911	0.0000000
15.1946936	0.0000000
15.1946962	0.0000000
15.1946990	0.0000000
15.1947082	0.0000000
15.1947108	0.0000000
15.1947190	0.0000000
15.1947218	0.0000000
15.1947244	0.0000000
15.1947318	0.0000000
15.1947343	0.0000000
15.1947369	0.0000000
15.1947456	0.0000000
15.1947484	0.0000000
15.1947510	0.0000000
15.1947581	0.0000000
15.1947610	0.0000000
15.1947694	0.0000000
15.1947722	0.0000000
15.1947748	0.0000000
15.1948708	0.0000000
15.1948733	0.0000000
15.1948754	0.0000000
15.1948920	0.0000000
15.1948948	0.0000000
15.1948972	0.0000000
15.1949105	0.0000000
