# Time	Velocity	Pitch	Yaw
-10.0136084	0.0000000	0.0000000	0.0000000
-9.9134167	0.0000000	0.0000000	0.0000000
-9.8136975	0.0000000	0.0000000	0.0000000
-9.7136233	0.0000000	0.0000000	0.0000000
-9.6137562	0.0000000	0.0000000	0.0000000
-9.5136960	0.0000000	0.0000000	0.0000000
-9.4137613	0.0000000	0.0000000	0.0000000
-9.3136870	0.0000000	0.0000000	0.0000000
-9.2136730	0.0000000	0.0000000	0.0000000
-9.1136422	0.0000000	0.0000000	0.0000000
-9.0135311	0.0000000	0.0000000	0.0000000
-8.9135636	0.0000000	0.0000000	0.0000000
-8.8135995	0.0000000	0.0000000	0.0000000
-8.7137357	0.0000000	0.0000000	0.0000000
-8.6136253	0.0000000	0.0000000	0.0000000
-8.5138258	0.0000000	0.0000000	0.0000000
-8.4135900	0.0000000	0.0000000	0.0000000
-8.3136758	0.0000000	0.0000000	0.0000000
-8.2137964	0.0000000	0.0000000	0.0000000
-8.1137354	0.0000000	0.0000000	0.0000000
-8.0136138	0.0000000	0.0000000	0.0000000
-7.9136499	0.0000000	0.0000000	0.0000000
-7.8135790	0.0000000	0.0000000	0.0000000
-7.7135951	0.0000000	0.0000000	0.0000000
-7.6136033	0.0000000	0.0000000	0.0000000
-7.5136251	0.0000000	0.0000000	0.0000000
-7.4135711	0.0000000	0.0000000	0.0000000
-7.3137477	0.0000000	0.0000000	0.0000000
-7.2136655	0.0000000	0.0000000	0.0000000
-7.1136515	0.0000000	0.0000000	0.0000000
-7.0137175	0.0000000	0.0000000	0.0000000
-6.9136369	0.0000000	0.0000000	0.0000000
-6.8135759	0.0000000	0.0000000	0.0000000
-6.7136755	0.0000000	0.0000000	0.0000000
-6.6135296	0.0000000	0.0000000	0.0000000
-6.5136381	0.0000000	0.0000000	0.0000000
-6.4137743	0.0000000	0.0000000	0.0000000
-6.3136366	0.0000000	0.0000000	0.0000000
-6.2137167	0.0000000	0.0000000	0.0000000
-6.1136996	0.0000000	0.0000000	0.0000000
-6.0136963	0.0000000	0.0000000	0.0000000
-5.9136689	0.0000000	0.0000000	0.0000000
-5.8136858	0.0000000	0.0000000	0.0000000
-5.7135923	0.0000000	0.0000000	0.0000000
-5.6136786	0.0000000	0.0000000	0.0000000
-5.5136722	0.0000000	0.0000000	0.0000000
-5.4136663	0.0000000	0.0000000	0.0000000
-5.3136934	0.0000000	0.0000000	0.0000000
-5.2136563	0.0000000	0.0000000	0.0000000
-5.1136676	0.0000000	0.0000000	0.0000000
-5.0136497	0.0000000	0.0000000	0.0000000
-4.9136604	0.0000000	0.0000000	0.0000000
-4.8137275	0.0000000	0.0000000	0.0000000
-4.7136330	0.0000000	0.0000000	0.0000000
-4.6135885	0.0000000	0.0000000	0.0000000
-4.5136371	0.0000000	0.0000000	0.0000000
-4.4136858	0.0000000	0.0000000	0.0000000
-4.3136420	0.0000000	0.0000000	0.0000000
-4.2137224	0.0000000	0.0000000	0.0000000
-4.1136579	0.0000000	0.0000000	0.0000000
-4.0137057	0.0000000	0.0000000	0.0000000
-3.9137505	0.0000000	0.0000000	0.0000000
-3.8137093	0.0000000	0.0000000	0.0000000
-3.7137513	0.0000000	0.0000000	0.0000000
-3.6137516	0.0000000	0.0000000	0.0000000
-3.5137490	0.0000000	0.0000000	0.0000000
-3.4137372	0.0000000	0.0000000	0.0000000
-3.3138092	0.0000000	0.0000000	0.0000000
-3.2136998	0.0000000	0.0000000	0.0000000
-3.1136781	0.0000000	0.0000000	0.0000000
-3.0135030	0.0000000	0.0000000	0.0000000
-2.9136973	0.0000000	0.0000000	0.0000000
-2.8136430	0.0000000	0.0000000	0.0000000
-2.7136348	0.0000000	0.0000000	0.0000000
-2.6137196	0.0000000	0.0000000	0.0000000
-2.5137236	0.0000000	0.0000000	0.0000000
-2.4136771	0.0000000	0.0000000	0.0000000
-2.3136381	0.0000000	0.0000000	0.0000000
-2.2136591	0.0000000	0.0000000	0.0000000
-2.1136276	0.0000000	0.0000000	0.0000000
-2.0136630	0.0000000	0.0000000	0.0000000
-1.9136151	0.0000000	0.0000000	0.0000000
-1.8137139	0.0000000	0.0000000	0.0000000
-1.7135596	0.0000000	0.0000000	0.0000000
-1.6137777	0.0000000	0.0000000	0.0000000
-1.5136914	0.0000000	0.0000000	0.0000000
-1.4137613	0.0000000	0.0000000	0.0000000
-1.3136207	0.0000000	0.0000000	0.0000000
-1.2137702	0.0000000	0.0000000	0.0000000
-1.1136799	0.0000000	0.0000000	0.0000000
-1.0137347	0.0000000	0.0000000	0.0000000
-0.9136727	0.0000000	0.0000000	0.0000000
-0.8136986	0.0000000	0.0000000	0.0000000
-0.7136271	0.0000000	0.0000000	0.0000000
-0.6137073	0.0000000	0.0000000	0.0000000
-0.5136625	0.0000000	0.0000000	0.0000000
-0.4136015	0.0000000	0.0000000	0.0000000
-0.3136123	0.0000000	0.0000000	0.0000000
-0.2136079	0.0000000	0.0000000	0.0000000
-0.1136632	0.0000000	0.0000000	0.0000000
-0.0134817	0.0000000	0.0000000	0.0000000
0.0864906	0.0000000	0.0000000	0.0000000
0.1864863	0.0000000	0.0000000	0.0000001
0.2864709	0.0000000	0.0000000	0.0000002
0.3864233	0.0000000	0.0000000	0.0000003
0.4864177	0.0000000	0.0000000	0.0000004
0.5864561	0.0000000	0.0000000	0.0000006
0.6863032	0.0000000	0.0000000	0.0000008
0.7863880	0.0000000	0.0000000	0.0000010
0.8864148	0.0000000	0.0000000	0.0000013
0.9867863	0.0000000	0.0000000	0.0000016
1.0864978	0.0000000	0.0000000	0.0000019
1.1866504	0.0000000	0.0000000	0.0000022
1.2864128	0.0000000	0.0000000	0.0000026
1.3864509	0.0000000	0.0000000	0.0000029
1.4864512	0.0000000	0.0000000	0.0000033
1.5864937	0.0000000	0.0000000	0.0000038
1.6864620	0.0000000	0.0000000	0.0000042
1.7864727	0.0000000	0.0000000	0.0000046
1.8863657	0.0000000	0.0000000	0.0000051
1.9865421	0.0000000	0.0000000	0.0000056
2.0864527	0.0000000	0.0000000	0.0000061
2.1863900	0.0000000	0.0000000	0.0000066
2.2863880	0.0000000	0.0000000	0.0000071
2.3864768	0.0000000	0.0000000	0.0000076
2.4864509	0.0000000	0.0000000	0.0000082
2.5864399	0.0000000	0.0000000	0.0000087
2.6862999	0.0000000	0.0000000	0.0000093
2.7864760	0.0000000	0.0000000	0.0000098
2.8863352	0.0000000	0.0000000	0.0000104
2.9863240	0.0000000	0.0000000	0.0000110
3.0864899	0.0000000	0.0000000	0.0000116
3.1865147	0.0000000	0.0000000	0.0000121
3.2863964	0.0000000	0.0000000	0.0000127
3.3863398	0.0000000	0.0000000	0.0000133
3.4863767	0.0000000	0.0000000	0.0000139
3.5866388	0.0000000	0.0000000	0.0000145
3.6864146	0.0000000	0.0000000	0.0000150
3.7864394	0.0000000	0.0000000	0.0000156
3.8863785	0.0000000	0.0000000	0.0000162
3.9864195	0.0000000	0.0000000	0.0000167
4.0863716	0.0000000	0.0000000	0.0000173
4.1865935	0.0000000	0.0000000	0.0000178
4.2865339	0.0000000	0.0000000	0.0000184
4.3864576	0.0000000	0.0000000	0.0000189
4.4862674	0.0000000	0.0000000	0.0000194
4.5864228	0.0000000	0.0000000	0.0000199
4.6863928	0.0000000	0.0000000	0.0000204
4.7864287	0.0000000	0.0000000	0.0000209
4.8864335	0.0000000	0.0000000	0.0000213
4.9863759	0.0000000	0.0000000	0.0000218
5.0865034	0.0000000	0.0000000	0.0000222
5.1864750	0.0000000	0.0000000	0.0000226
5.2864806	0.0000000	0.0000000	0.0000230
5.3864837	0.0000000	0.0000000	0.0000234
5.4864852	0.0000000	0.0000000	0.0000237
5.5864151	0.0000000	0.0000000	0.0000240
5.6863959	0.0000000	0.0000000	0.0000243
5.7864399	0.0000000	0.0000000	0.0000246
5.8864143	0.0000000	0.0000000	0.0000249
5.9864627	0.0000000	0.0000000	0.0000251
6.0865019	0.0000000	0.0000000	0.0000253
6.1864532	0.0000000	0.0000000	0.0000254
6.2863501	0.0000000	0.0000000	0.0000256
6.3863212	0.0000000	0.0000000	0.0000257
6.4864330	0.0000000	0.0000000	0.0000258
6.5863672	0.0000000	0.0000000	0.0000258
6.6864568	0.0000000	0.0000000	0.0000258
6.7863045	0.0000000	0.0000000	0.0000258
6.8863936	0.0000000	0.0000000	0.0000257
6.9863777	0.0000000	0.0000000	0.0000256
7.0864835	0.0000000	0.0000000	0.0000255
7.1864535	0.0000000	0.0000000	0.0000253
7.2863475	0.0000000	0.0000000	0.0000251
7.3862717	0.0000000	0.0000000	0.0000248
7.4864430	0.0000000	0.0000000	0.0000245
7.5864809	0.0000000	0.0000000	0.0000241
7.6865820	0.0000000	0.0000000	0.0000238
7.7866716	0.0000000	0.0000000	0.0000233
7.8864458	0.0000000	0.0000000	0.0000228
7.9863611	0.0000000	0.0000000	0.0000223
8.0864486	0.0000000	0.0000000	0.0000217
8.1864300	0.0000000	0.0000000	0.0000211
8.2864765	0.0000000	0.0000000	0.0000204
8.3864868	0.0000000	0.0000000	0.0000197
8.4863442	0.0000000	0.0000000	0.0000189
8.5864236	0.0000000	0.0000000	0.0000180
8.6864353	0.0000000	0.0000000	0.0000171
8.7866117	0.0000000	0.0000000	0.0000162
8.8864535	0.0000000	0.0000000	0.0000152
8.9864438	0.0000000	0.0000000	0.0000141
9.0866949	0.0000000	0.0000000	0.0000130
9.1864451	0.0000000	0.0000000	0.0000118
9.2864407	0.0000000	0.0000000	0.0000105
9.3867592	0.0000000	0.0000000	0.0000092
9.4864300	0.0000000	0.0000000	0.0000078
9.5864924	0.0000000	0.0000000	0.0000064
9.6864120	0.0000000	0.0000000	0.0000049
9.7864899	0.0000000	0.0000000	0.0000033
9.8864323	0.0000000	0.0000000	0.0000017
9.9863859	0.0000000	0.0000000	-0.0000000
10.0863826	0.0000000	0.0000000	0.0000467
10.1864333	0.0000000	0.0000000	0.0001976
10.2864773	0.0000000	0.0000000	0.0004517
10.3864282	0.0000000	0.0000000	0.0008082
10.4864840	0.0000000	0.0000000	0.0012671
10.5863703	0.0000000	0.0000000	0.0018263
10.6864666	0.0000000	0.0000000	0.0024870
10.7864000	0.0000000	0.0000000	0.0032467
10.8864809	0.0000000	0.0000000	0.0041070
10.9863055	0.0000000	0.0000000	0.0050638
11.0865367	0.0000000	0.0000000	0.0061206
11.1864550	0.0000000	0.0000000	0.0072735
11.2864963	0.0000000	0.0000000	0.0085216
11.3864653	0.0000000	0.0000000	0.0098676
11.4865172	0.0000000	0.0000000	0.0113067
11.5864266	0.0000000	0.0000000	0.0128400
11.6863918	0.0000000	0.0000000	0.0144673
11.7863327	0.0000000	0.0000000	0.0161857
11.8864970	0.0000000	0.0000000	0.0180002
11.9864540	0.0000000	0.0000000	0.0199037
12.0865208	0.0000000	0.0000000	0.0218992
12.1863020	0.0000000	0.0000000	0.0239811
12.2863181	0.0000000	0.0000000	0.0261556
12.3864750	0.0000000	0.0000000	0.0284203
12.4864259	0.0000000	0.0000000	0.0307708
12.5863268	0.0000000	0.0000000	0.0332062
12.6864061	0.0000000	0.0000000	0.0357323
12.7864765	0.0000000	0.0000000	0.0383447
12.8864740	0.0000000	0.0000000	0.0410398
12.9864768	0.0000000	0.0000000	0.0438198
13.0863772	0.0000000	0.0000000	0.0466807
13.1864064	0.0000000	0.0000000	0.0496281
13.2864581	0.0000000	0.0000000	0.0526595
13.3863880	0.0000000	0.0000000	0.0557687
13.4864824	0.0000000	0.0000000	0.0589657
13.5864983	0.0000000	0.0000000	0.0622354
13.6863619	0.0000000	0.0000000	0.0655854
13.7864689	0.0000000	0.0000000	0.0690187
13.8862892	0.0000000	0.0000000	0.0725239
13.9865244	0.0000000	0.0000000	0.0761168
14.0863404	0.0000000	0.0000000	0.0797746
14.1864678	0.0000000	0.0000000	0.0835166
14.2863071	0.0000000	0.0000000	0.0873282
14.3863770	0.0000000	0.0000000	0.0912175
14.4864220	0.0000000	0.0000000	0.0951856
14.5864133	0.0000000	0.0000000	0.0992213
14.6863537	0.0000000	0.0000000	0.1033280
14.7865165	0.0000000	0.0000000	0.1075148
14.8863278	0.0000000	0.0000000	0.1117628
14.9864655	0.0000000	0.0000000	0.1160902
15.0864760	0.0000000	0.0000000	0.1204828
15.1865060	0.0000000	0.0000000	0.1249456
15.2863828	0.0000000	0.0000000	0.1294749
15.3865318	0.0000000	0.0000000	0.1340754
15.4864320	0.0000000	0.0000000	0.1387369
15.5864246	0.0000000	0.0000000	0.1434710
15.6864824	0.0000000	0.0000000	0.1482690
15.7864371	0.0000000	0.0000000	0.1531325
15.8864515	0.0000000	0.0000000	0.1580563
15.9863695	0.0000000	0.0000000	0.1630430
16.0864899	0.0000000	0.0000000	0.1681040
16.1864899	0.0000000	0.0000000	0.1732164
16.2864195	0.0000000	0.0000000	0.1783885
16.3863281	0.0000000	0.0000000	0.1836252
16.4865797	0.0000000	0.0000000	0.1889304
16.5863094	0.0000000	0.0000000	0.1942786
16.6864855	0.0000000	0.0000000	0.1997001
16.7863365	0.0000000	0.0000000	0.2051672
16.8864125	0.0000000	0.0000000	0.2107032
16.9864417	0.0000000	0.0000000	0.2162923
17.0864174	0.0000000	0.0000000	0.2219351
17.1864315	0.0000000	0.0000000	0.2276320
17.2865329	0.0000000	0.0000000	0.2333849
17.3864164	0.0000000	0.0000000	0.2391891
17.4865180	0.0000000	0.0000000	0.2450504
17.5863918	0.0000000	0.0000000	0.2509583
17.6863721	0.0000000	0.0000000	0.2569198
17.7865039	0.0000000	0.0000000	0.2629418
17.8864079	0.0000000	0.0000000	0.2690061
17.9864612	0.0000000	0.0000000	0.2751175
18.0864637	0.0000000	0.0000000	0.2812813
18.1864563	0.0000000	0.0000000	0.2874926
18.2864530	0.0000000	0.0000000	0.2937535
18.3864620	0.0000000	0.0000000	0.3000572
18.4864113	0.0000000	0.0000000	0.3064104
18.5865201	0.0000000	0.0000000	0.3128129
18.6863450	0.0000000	0.0000000	0.3192432
18.7864092	0.0000000	0.0000000	0.3257346
18.8864940	0.0000000	0.0000000	0.3322677
18.9864748	0.0000000	0.0000000	0.3388387
19.0864476	0.0000000	0.0000000	0.3454493
19.1863821	0.0000000	0.0000000	0.3521043
19.2865078	0.0000000	0.0000000	0.3588021
19.3863716	0.0000000	0.0000000	0.3655314
19.4863109	0.0000000	0.0000000	0.3723046
19.5864773	0.0000000	0.0000000	0.3791240
19.6865009	0.0000000	0.0000000	0.3859761
19.7864881	0.0000000	0.0000000	0.3928626
19.8864806	0.0000000	0.0000000	0.3997859
19.9864172	0.0000000	0.0000000	0.4067448
20.0864131	0.0000000	0.0000000	0.4137416
20.1864596	0.0000000	0.0000000	0.4207699
20.2865029	0.0000000	0.0000000	0.4278283
20.3864556	0.0000000	0.0000000	0.4349254
20.4864512	0.0000000	0.0000000	0.4420521
20.5863887	0.0000000	0.0000000	0.4492089
20.6864392	0.0000000	0.0000000	0.4564003
20.7863542	0.0000000	0.0000000	0.4636149
20.8863985	0.0000000	0.0000000	0.4708675
20.9863969	0.0000000	0.0000000	0.4781421
21.0863557	0.0000000	0.0000000	0.4854442
21.1864553	0.0000000	0.0000000	0.4927836
21.2864515	0.0000000	0.0000000	0.5001367
21.3863629	0.0000000	0.0000000	0.5075231
21.4863777	0.0000000	0.0000000	0.5149363
21.5864133	0.0000000	0.0000000	0.5223669
21.6865385	0.0000000	0.0000000	0.5298345
21.7864397	0.0000000	0.0000000	0.5373115
21.8864676	0.0000000	0.0000000	0.5448153
21.9864701	0.0000000	0.0000000	0.5523425
22.0865011	0.0000000	0.0000000	0.5598903
22.1864456	0.0000000	0.0000000	0.5674525
22.2864540	0.0000000	0.0000000	0.5750392
22.3864407	0.0000000	0.0000000	0.5826437
22.4863913	0.0000000	0.0000000	0.5902672
22.5864678	0.0000000	0.0000000	0.5979117
22.6864591	0.0000000	0.0000000	0.6055658
22.7863695	0.0000000	0.0000000	0.6132338
22.8863636	0.0000000	0.0000000	0.6209282
22.9864594	0.0000000	0.0000000	0.6286375
23.0864781	0.0000000	0.0000000	0.6363556
23.1863895	0.0000000	0.0000000	0.6440826
23.2863887	0.0000000	0.0000000	0.6518247
23.3865157	0.0000000	0.0000000	0.6595827
23.4864466	0.0000000	0.0000000	0.6673473
23.5864195	0.0000000	0.0000000	0.6751232
23.6863846	0.0000000	0.0000000	0.6829112
23.7863493	0.0000000	0.0000000	0.6907005
23.8864678	0.0000000	0.0000000	0.6985101
23.9863939	0.0000000	0.0000000	0.7063238
24.0864671	0.0000000	0.0000000	0.7141424
24.1863744	0.0000000	0.0000000	0.7219687
24.2864218	0.0000000	0.0000000	0.7297966
24.3864563	0.0000000	0.0000000	0.7376364
24.4864650	0.0000000	0.0000000	0.7454746
24.5864369	0.0000000	0.0000000	0.7533223
24.6862725	0.0000000	0.0000000	0.7611576
24.7863124	0.0000000	0.0000000	0.7690089
24.8864916	0.0000000	0.0000000	0.7768645
24.9863421	0.0000000	0.0000000	0.7847086
25.0864891	0.0000000	0.0000000	0.7925682
25.1865247	0.0000000	0.0000000	0.8004194
25.2863852	0.0000000	0.0000000	0.8082629
25.3864822	0.0000000	0.0000000	0.8161120
25.4864530	0.0000000	0.0000000	0.8239554
25.5863895	0.0000000	0.0000000	0.8317904
25.6864177	0.0000000	0.0000000	0.8396325
25.7864333	0.0000000	0.0000000	0.8474625
25.8863460	0.0000000	0.0000000	0.8552854
25.9863603	0.0000000	0.0000000	0.8631015
26.0863660	0.0000000	0.0000000	0.8709149
26.1864044	0.0000000	0.0000000	0.8787253
26.2863724	0.0000000	0.0000000	0.8865181
26.3864133	0.0000000	0.0000000	0.8943112
26.4863795	0.0000000	0.0000000	0.9020860
26.5863762	0.0000000	0.0000000	0.9098545
26.6863299	0.0000000	0.0000000	0.9176030
26.7863698	0.0000000	0.0000000	0.9253567
26.8864538	0.0000000	0.0000000	0.9330875
26.9864916	0.0000000	0.0000000	0.9408067
27.0864852	0.0000000	0.0000000	0.9485163
27.1865055	0.0000000	0.0000000	0.9562050
27.2865060	0.0000000	0.0000000	0.9638780
27.3864914	0.0000000	0.0000000	0.9715391
27.4864404	0.0000000	0.0000000	0.9791786
27.5863537	0.0000000	0.0000000	0.9867947
27.6864323	0.0000000	0.0000000	0.9944034
27.7865016	0.0000000	0.0000000	1.0020007
27.8864397	0.0000000	0.0000000	1.0095651
27.9865014	0.0000000	0.0000000	1.0171143
28.0863834	0.0000000	0.0000000	1.0246384
28.1864599	0.0000000	0.0000000	1.0321465
28.2864415	0.0000000	0.0000000	1.0396267
28.3864929	0.0000000	0.0000000	1.0470872
28.4863972	0.0000000	0.0000000	1.0545167
28.5863713	0.0000000	0.0000000	1.0619308
28.6863347	0.0000000	0.0000000	1.0693159
28.7864632	0.0000000	0.0000000	1.0766823
28.8864330	0.0000000	0.0000000	1.0840163
28.9863547	0.0000000	0.0000000	1.0913228
29.0865116	0.0000000	0.0000000	1.0986068
29.1863734	0.0000000	0.0000000	1.1058495
29.2864765	0.0000000	0.0000000	1.1130751
29.3864668	0.0000000	0.0000000	1.1202688
29.4864934	0.0000000	0.0000000	1.1274297
29.5865062	0.0000000	0.0000000	1.1345631
29.6864668	0.0000000	0.0000000	1.1416584
29.7864051	0.0000000	0.0000000	1.1487135
29.8864888	0.0000000	0.0000000	1.1557546
29.9864420	0.0000000	0.0000000	1.1627486
30.0863176	0.0000000	0.0000000	1.1697048
30.1863736	0.0000000	0.0000000	1.1766322
30.2865019	0.0000000	0.0000000	1.1835302
30.3864896	0.0000000	0.0000000	1.1903824
30.4864517	0.0000000	0.0000000	1.1971984
30.5864527	0.0000000	0.0000000	1.2039748
30.6864653	0.0000000	0.0000000	1.2107147
30.7863872	0.0000000	0.0000000	1.2174053
30.8863532	0.0000000	0.0000000	1.2240621
30.9863693	0.0000000	0.0000000	1.2306803
31.0864013	0.0000000	0.0000000	1.2372570
31.1864451	0.0000000	0.0000000	1.2437909
31.2863585	0.0000000	0.0000000	1.2502760
31.3865016	0.0000000	0.0000000	1.2567258
31.4864151	0.0000000	0.0000000	1.2631285
31.5864607	0.0000000	0.0000000	1.2694842
31.6865027	0.0000000	0.0000000	1.2757951
31.7864090	0.0000000	0.0000000	1.2820536
31.8864617	0.0000000	0.0000000	1.2882680
31.9864909	0.0000000	0.0000000	1.2944363
32.0864325	0.0000000	0.0000000	1.3005533
32.1864594	0.0000000	0.0000000	1.3066213
32.2863913	0.0000000	0.0000000	1.3126392
32.3864095	0.0000000	0.0000000	1.3186024
32.4864087	0.0000000	0.0000000	1.3245192
32.5864888	0.0000000	0.0000000	1.3303863
32.6864369	0.0000000	0.0000000	1.3361952
32.7862789	0.0000000	0.0000000	1.3419470
32.8863672	0.0000000	0.0000000	1.3476510
32.9864195	0.0000000	0.0000000	1.3533014
33.0863677	0.0000000	0.0000000	1.3588930
33.1864645	0.0000000	0.0000000	1.3644316
33.2863923	0.0000000	0.0000000	1.3699045
33.3864968	0.0000000	0.0000000	1.3753262
33.4865516	0.0000000	0.0000000	1.3806901
33.5864527	0.0000000	0.0000000	1.3859887
33.6864873	0.0000000	0.0000000	1.3912331
33.7864044	0.0000000	0.0000000	1.3964063
33.8863237	0.0000000	0.0000000	1.4015256
33.9863347	0.0000000	0.0000000	1.4065824
34.0864837	0.0000000	0.0000000	1.4115834
34.1864033	0.0000000	0.0000000	1.4165127
34.2864415	0.0000000	0.0000000	1.4213805
34.3864461	0.0000000	0.0000000	1.4261835
34.4865152	0.0000000	0.0000000	1.4309196
34.5863695	0.0000000	0.0000000	1.4355862
34.6865178	0.0000000	0.0000000	1.4401950
34.7863923	0.0000000	0.0000000	1.4447238
34.8863964	0.0000000	0.0000000	1.4491919
34.9865347	0.0000000	0.0000000	1.4535971
35.0864998	0.0000000	0.0000000	1.4579235
35.1865009	0.0000000	0.0000000	1.4621809
35.2864343	0.0000000	0.0000000	1.4663671
35.3864151	0.0000000	0.0000000	1.4704814
35.4864023	0.0000000	0.0000000	1.4745251
35.5864538	0.0000000	0.0000000	1.4784930
35.6864504	0.0000000	0.0000000	1.4823900
35.7864758	0.0000000	0.0000000	1.4862086
35.8863624	0.0000000	0.0000000	1.4899496
35.9864806	0.0000000	0.0000000	1.4936230
36.0864525	0.0000000	0.0000000	1.4972155
36.1864156	0.0000000	0.0000000	1.5007297
36.2864151	0.0000000	0.0000000	1.5041645
36.3864520	0.0000000	0.0000000	1.5075241
36.4864573	0.0000000	0.0000000	1.5108011
36.5863511	0.0000000	0.0000000	1.5139989
36.6865231	0.0000000	0.0000000	1.5171174
36.7863491	0.0000000	0.0000000	1.5201489
36.8864202	0.0000000	0.0000000	1.5231050
36.9864410	0.0000000	0.0000000	1.5259752
37.0864095	0.0000000	0.0000000	1.5287622
37.1864891	0.0000000	0.0000000	1.5314640
37.2865446	0.0000000	0.0000000	1.5340815
37.3864701	0.0000000	0.0000000	1.5366107
37.4864522	0.0000000	0.0000000	1.5390557
37.5864141	0.0000000	0.0000000	1.5414124
37.6864771	0.0000000	0.0000000	1.5436816
37.7864607	0.0000000	0.0000000	1.5458617
37.8864545	0.0000000	0.0000000	1.5479529
37.9864845	0.0000000	0.0000000	1.5499552
38.0863990	0.0000000	0.0000000	1.5518645
38.1863672	0.0000000	0.0000000	1.5536839
38.2862707	0.0000000	0.0000000	1.5554091
38.3863718	0.0000000	0.0000000	1.5570447
38.4864753	0.0000000	0.0000000	1.5585855
38.5864320	0.0000000	0.0000000	1.5600321
38.6863795	0.0000000	0.0000000	1.5613834
38.7864404	0.0000000	0.0000000	1.5626394
38.8863982	0.0000000	0.0000000	1.5637989
38.9864118	0.0000000	0.0000000	1.5648612
39.0864599	0.0000000	0.0000000	1.5658265
39.1863964	0.0000000	0.0000000	1.5666933
39.2864279	0.0000000	0.0000000	1.5674605
39.3864650	0.0000000	0.0000000	1.5681287
39.4864806	0.0000000	0.0000000	1.5686958
39.5863887	0.0000000	0.0000000	1.5691617
39.6863252	0.0000000	0.0000000	1.5695257
39.7864072	0.0000000	0.0000000	1.5697875
39.8864525	0.0000000	0.0000000	1.5699458
39.9864515	0.0000000	0.0000000	1.5700001
40.0864704	0.0000000	0.0000000	1.5699984
40.1864468	0.0000000	0.0000000	1.5699967
40.2863398	0.0000000	0.0000000	1.5699950
40.3863706	0.0000000	0.0000000	1.5699935
40.4863365	0.0000000	0.0000000	1.5699918
40.5864535	0.0000000	0.0000000	1.5699903
40.6864773	0.0000000	0.0000000	1.5699887
40.7863890	0.0000000	0.0000000	1.5699873
40.8864253	0.0000000	0.0000000	1.5699859
40.9864097	0.0000000	0.0000000	1.5699844
41.0865083	0.0000000	0.0000000	1.5699830
41.1865201	0.0000000	0.0000000	1.5699816
41.2864397	0.0000000	0.0000000	1.5699803
41.3863562	0.0000000	0.0000000	1.5699790
41.4865103	0.0000000	0.0000000	1.5699778
41.5863465	0.0000000	0.0000000	1.5699764
41.6863749	0.0000000	0.0000000	1.5699753
41.7864302	0.0000000	0.0000000	1.5699741
41.8864061	0.0000000	0.0000000	1.5699730
41.9865057	0.0000000	0.0000000	1.5699718
42.0864870	0.0000000	0.0000000	1.5699707
42.1864353	0.0000000	0.0000000	1.5699698
42.2864617	0.0000000	0.0000000	1.5699687
42.3864084	0.0000000	0.0000000	1.5699677
42.4864520	0.0000000	0.0000000	1.5699667
42.5864563	0.0000000	0.0000000	1.5699657
42.6864530	0.0000000	0.0000000	1.5699649
42.7864604	0.0000000	0.0000000	1.5699639
42.8865011	0.0000000	0.0000000	1.5699631
42.9863688	0.0000000	0.0000000	1.5699623
43.0864707	0.0000000	0.0000000	1.5699614
43.1863654	0.0000000	0.0000000	1.5699607
43.2863939	0.0000000	0.0000000	1.5699600
43.3864195	0.0000000	0.0000000	1.5699593
43.4864463	0.0000000	0.0000000	1.5699586
43.5863698	0.0000000	0.0000000	1.5699579
43.6863539	0.0000000	0.0000000	1.5699573
43.7865357	0.0000000	0.0000000	1.5699565
43.8864517	0.0000000	0.0000000	1.5699559
43.9863488	0.0000000	0.0000000	1.5699555
44.0864440	0.0000000	0.0000000	1.5699549
44.1865027	0.0000000	0.0000000	1.5699544
44.2864343	0.0000000	0.0000000	1.5699539
44.3864205	0.0000000	0.0000000	1.5699534
44.4863580	0.0000000	0.0000000	1.5699530
44.5864294	0.0000000	0.0000000	1.5699525
44.6864156	0.0000000	0.0000000	1.5699521
44.7864023	0.0000000	0.0000000	1.5699518
44.8865006	0.0000000	0.0000000	1.5699513
44.9864998	0.0000000	0.0000000	1.5699511
45.0864927	0.0000000	0.0000000	1.5699507
45.1863319	0.0000000	0.0000000	1.5699505
45.2865434	0.0000000	0.0000000	1.5699501
45.3865216	0.0000000	0.0000000	1.5699499
45.4863452	0.0000000	0.0000000	1.5699496
45.5863526	0.0000000	0.0000000	1.5699494
45.6863862	0.0000000	0.0000000	1.5699493
45.7864876	0.0000000	0.0000000	1.5699490
45.8864284	0.0000000	0.0000000	1.5699489
45.9863296	0.0000000	0.0000000	1.5699488
46.0864860	0.0000000	0.0000000	1.5699487
46.1865539	0.0000000	0.0000000	1.5699486
46.2864348	0.0000000	0.0000000	1.5699486
46.3864742	0.0000000	0.0000000	1.5699484
46.4864568	0.0000000	0.0000000	1.5699484
46.5864038	0.0000000	0.0000000	1.5699484
46.6865034	0.0000000	0.0000000	1.5699483
46.7864044	0.0000000	0.0000000	1.5699484
46.8863703	0.0000000	0.0000000	1.5699484
46.9863613	0.0000000	0.0000000	1.5699484
47.0864791	0.0000000	0.0000000	1.5699486
47.1863539	0.0000000	0.0000000	1.5699486
47.2864015	0.0000000	0.0000000	1.5699487
47.3863836	0.0000000	0.0000000	1.5699488
47.4864448	0.0000000	0.0000000	1.5699489
47.5864233	0.0000000	0.0000000	1.5699490
47.6863534	0.0000000	0.0000000	1.5699493
47.7864978	0.0000000	0.0000000	1.5699494
47.8863964	0.0000000	0.0000000	1.5699496
47.9864660	0.0000000	0.0000000	1.5699499
48.0864922	0.0000000	0.0000000	1.5699500
48.1863588	0.0000000	0.0000000	1.5699502
48.2865050	0.0000000	0.0000000	1.5699505
48.3864540	0.0000000	0.0000000	1.5699507
48.4864479	0.0000000	0.0000000	1.5699511
48.5864837	0.0000000	0.0000000	1.5699513
48.6864899	0.0000000	0.0000000	1.5699517
48.7864538	0.0000000	0.0000000	1.5699519
48.8863493	0.0000000	0.0000000	1.5699522
48.9862682	0.0000000	0.0000000	1.5699526
49.0863839	0.0000000	0.0000000	1.5699528
49.1867843	0.0000000	0.0000000	1.5699532
49.2865027	0.0000000	0.0000000	1.5699536
49.3865649	0.0000000	0.0000000	1.5699539
49.4864563	0.0000000	0.0000000	1.5699544
49.5863583	0.0000000	0.0000000	1.5699548
49.6863916	0.0000000	0.0000000	1.5699551
49.7864566	0.0000000	0.0000000	1.5699556
49.8864361	0.0000000	0.0000000	1.5699559
49.9865528	0.0000000	0.0000000	1.5699564
50.0864612	0.0000000	0.0000000	1.5699569
50.1865247	0.0000000	0.0000000	1.5699573
50.2864417	0.0000000	0.0000000	1.5699577
50.3863764	0.0000000	0.0000000	1.5699582
50.4864673	0.0000000	0.0000000	1.5699587
50.5864637	0.0000000	0.0000000	1.5699592
50.6864310	0.0000000	0.0000000	1.5699596
50.7864617	0.0000000	0.0000000	1.5699601
50.8864143	0.0000000	0.0000000	1.5699607
50.9864320	0.0000000	0.0000000	1.5699612
51.0863736	0.0000000	0.0000000	1.5699617
51.1864750	0.0000000	0.0000000	1.5699621
51.2863852	0.0000000	0.0000000	1.5699627
51.3864138	0.0000000	0.0000000	1.5699632
51.4864279	0.0000000	0.0000000	1.5699638
51.5864402	0.0000000	0.0000000	1.5699643
51.6864827	0.0000000	0.0000000	1.5699649
51.7863782	0.0000000	0.0000000	1.5699655
51.8862840	0.0000000	0.0000000	1.5699660
51.9863892	0.0000000	0.0000000	1.5699666
52.0867177	0.0000000	0.0000000	1.5699670
52.1864950	0.0000000	0.0000000	1.5699676
52.2864596	0.0000000	0.0000000	1.5699682
52.3863821	0.0000000	0.0000000	1.5699688
52.4864097	0.0000000	0.0000000	1.5699694
52.5863334	0.0000000	0.0000000	1.5699699
52.6865795	0.0000000	0.0000000	1.5699705
52.7864033	0.0000000	0.0000000	1.5699711
52.8863468	0.0000000	0.0000000	1.5699717
52.9864031	0.0000000	0.0000000	1.5699723
53.0864205	0.0000000	0.0000000	1.5699729
53.1864072	0.0000000	0.0000000	1.5699733
53.2864207	0.0000000	0.0000000	1.5699739
53.3864543	0.0000000	0.0000000	1.5699745
53.4863964	0.0000000	0.0000000	1.5699751
53.5863864	0.0000000	0.0000000	1.5699757
53.6865114	0.0000000	0.0000000	1.5699763
53.7863606	0.0000000	0.0000000	1.5699769
53.8864586	0.0000000	0.0000000	1.5699774
53.9864005	0.0000000	0.0000000	1.5699780
54.0864020	0.0000000	0.0000000	1.5699786
54.1863391	0.0000000	0.0000000	1.5699792
54.2866220	0.0000000	0.0000000	1.5699798
54.3866867	0.0000000	0.0000000	1.5699803
54.4864589	0.0000000	0.0000000	1.5699809
54.5864668	0.0000000	0.0000000	1.5699815
54.6863066	0.0000000	0.0000000	1.5699821
54.7863954	0.0000000	0.0000000	1.5699825
54.8864292	0.0000000	0.0000000	1.5699831
54.9864732	0.0000000	0.0000000	1.5699836
55.0864791	0.0000000	0.0000000	1.5699842
55.1864166	0.0000000	0.0000000	1.5699848
55.2864020	0.0000000	0.0000000	1.5699853
55.3864028	0.0000000	0.0000000	1.5699857
55.4863795	0.0000000	0.0000000	1.5699863
55.5863736	0.0000000	0.0000000	1.5699868
55.6864768	0.0000000	0.0000000	1.5699873
55.7864082	0.0000000	0.0000000	1.5699879
55.8863629	0.0000000	0.0000000	1.5699884
55.9865060	0.0000000	0.0000000	1.5699888
56.0865774	0.0000000	0.0000000	1.5699893
56.1863982	0.0000000	0.0000000	1.5699898
56.2864090	0.0000000	0.0000000	1.5699903
56.3863268	0.0000000	0.0000000	1.5699908
56.4864494	0.0000000	0.0000000	1.5699912
56.5864545	0.0000000	0.0000000	1.5699916
56.6863726	0.0000000	0.0000000	1.5699921
56.7863529	0.0000000	0.0000000	1.5699925
56.8864479	0.0000000	0.0000000	1.5699929
56.9863808	0.0000000	0.0000000	1.5699934
57.0865418	0.0000000	0.0000000	1.5699937
57.1865946	0.0000000	0.0000000	1.5699941
57.2864909	0.0000000	0.0000000	1.5699944
57.3865019	0.0000000	0.0000000	1.5699949
57.4864230	0.0000000	0.0000000	1.5699953
57.5864422	0.0000000	0.0000000	1.5699956
57.6865203	0.0000000	0.0000000	1.5699959
57.7863219	0.0000000	0.0000000	1.5699962
57.8864435	0.0000000	0.0000000	1.5699966
57.9865042	0.0000000	0.0000000	1.5699968
58.0863944	0.0000000	0.0000000	1.5699972
58.1864159	0.0000000	0.0000000	1.5699974
58.2863409	0.0000000	0.0000000	1.5699977
58.3865405	0.0000000	0.0000000	1.5699979
58.4863004	0.0000000	0.0000000	1.5699981
58.5864952	0.0000000	0.0000000	1.5699984
58.6864195	0.0000000	0.0000000	1.5699986
58.7863859	0.0000000	0.0000000	1.5699989
58.8864407	0.0000000	0.0000000	1.5699990
58.9864407	0.0000000	0.0000000	1.5699992
59.0864724	0.0000000	0.0000000	1.5699993
59.1864704	0.0000000	0.0000000	1.5699995
59.2864335	0.0000000	0.0000000	1.5699996
59.3863788	0.0000000	0.0000000	1.5699997
59.4863304	0.0000000	0.0000000	1.5699998
59.5863834	0.0000000	0.0000000	1.5699998
59.6864850	0.0000000	0.0000000	1.5699999
59.7865068	0.0000000	0.0000000	1.5699999
59.8864986	0.0000000	0.0000000	1.5699999
59.9865052	0.0000000	0.0000000	0.0000000
60.0875254	0.0000000	0.0000000	0.0000000
71.2863575	0.0000000	0.0000000	0.0000000
71.3863583	0.0000000	0.0000000	0.0000000
71.4864115	0.0000000	0.0000000	0.0000000
71.5863268	0.0000000	0.0000000	0.0000000
71.6862641	0.0000000	0.0000000	0.0000000
71.7863921	0.0000000	0.0000000	0.0000000
71.8864074	0.0000000	0.0000000	0.0000000
71.9864225	0.0000000	0.0000000	0.0000000
72.0862984	0.0000000	0.0000000	0.0000000
72.1863749	0.0000000	0.0000000	0.0000000
72.2864074	0.0000000	0.0000000	0.0000000
72.3862874	0.0000000	0.0000000	0.0000000
72.4864031	0.0000000	0.0000000	0.0000000
72.5864195	0.0000000	0.0000000	0.0000000
72.6864166	0.0000000	0.0000000	0.0000000
72.7863972	0.0000000	0.0000000	0.0000000
72.8864520	0.0000000	0.0000000	0.0000000
72.9863956	0.0000000	0.0000000	0.0000000
73.0863831	0.0000000	0.0000000	0.0000000
73.1864223	0.0000000	0.0000000	0.0000000
73.2862746	0.0000000	0.0000000	0.0000000
73.3863823	0.0000000	0.0000000	0.0000000
73.4863380	0.0000000	0.0000000	0.0000000
73.5863324	0.0000000	0.0000000	0.0000000
73.6864020	0.0000000	0.0000000	0.0000000
73.7862971	0.0000000	0.0000000	0.0000000
73.8863345	0.0000000	0.0000000	0.0000000
73.9864952	0.0000000	0.0000000	0.0000000
74.0863255	0.0000000	0.0000000	0.0000000
74.1862451	0.0000000	0.0000000	0.0000000
74.2863724	0.0000000	0.0000000	0.0000000