# Time	Input
-9.8242652	0.0000000
-9.8236485	0.0000000
-9.7995098	0.0000000
-9.6996086	0.0000000
-9.5996196	0.0000000
-9.4996198	0.0000000
-9.3996774	0.0000000
-9.2997978	0.0000000
-9.1996234	0.0000000
-9.0997251	0.0000000
-8.9993664	0.0000000
-8.8992128	0.0000000
-8.7996920	0.0000000
-8.6996593	0.0000000
-8.5994529	0.0000000
-8.4995684	0.0000000
-8.3993377	0.0000000
-8.2996539	0.0000000
-8.1996534	0.0000000
-8.0995919	0.0000000
-7.9996442	0.0000000
-7.8993260	0.0000000
-7.7996288	0.0000000
-7.6996941	0.0000000
-7.5996616	0.0000000
-7.4996493	0.0000000
-7.3995912	0.0000000
-7.2996959	0.0000000
-7.1996915	0.0000000
-7.0997338	0.0000000
-6.9996488	0.0000000
-6.8993961	0.0000000
-6.7996101	0.0000000
-6.6997084	0.0000000
-6.5992361	0.0000000
-6.4996677	0.0000000
-6.3995999	0.0000000
-6.2995855	0.0000000
-6.1996316	0.0000000
-6.0996301	0.0000000
-5.9996713	0.0000000
-5.8996099	0.0000000
-5.7996040	0.0000000
-5.6996652	0.0000000
-5.5997906	0.0000000
-5.4996713	0.0000000
-5.3997020	0.0000000
-5.2996403	0.0000000
-5.1997197	0.0000000
-5.0996672	0.0000000
-4.9996393	0.0000000
-4.8995720	0.0000000
-4.7996465	0.0000000
-4.6996695	0.0000000
-4.5996134	0.0000000
-4.4996188	0.0000000
-4.3996759	0.0000000
-4.2996424	0.0000000
-4.1997238	0.0000000
-4.0997076	0.0000000
-3.9996690	0.0000000
-3.8997376	0.0000000
-3.7996014	0.0000000
-3.6997317	0.0000000
-3.5996349	0.0000000
-3.4995610	0.0000000
-3.3996815	0.0000000
-3.2996782	0.0000000
-3.1996879	0.0000000
-3.0996534	0.0000000
-2.9992771	0.0000000
-2.8996273	0.0000000
-2.7996887	0.0000000
-2.6996342	0.0000000
-2.5997023	0.0000000
-2.4997450	0.0000000
-2.3996580	0.0000000
-2.2996859	0.0000000
-2.1997105	0.0000000
-2.0995965	0.0000000
-1.9996513	0.0000000
-1.8996047	0.0000000
-1.7996598	0.0000000
-1.6997138	0.0000000
-1.5996147	0.0000000
-1.4996229	0.0000000
-1.3996703	0.0000000
-1.2996544	0.0000000
-1.1996710	0.0000000
-1.0996160	0.0000000
-0.9996116	0.0000000
-0.8996636	0.0000000
-0.7996378	0.0000000
-0.6997501	0.0000000
-0.5997740	0.0000000
-0.4995976	0.0000000
-0.3994153	0.0000000
-0.2995628	0.0000000
-0.1996042	0.0000000
-0.0997793	0.0000000
0.0004188	14.0492725
0.1003758	2.0115767
0.2003259	-0.1106754
0.3003246	-1.1661966
0.4002949	-1.5089817
0.5004065	-1.6542560
0.6003743	-1.6540253
0.7002752	-1.7091326
0.8002783	-1.7039067
0.9004966	-1.5829490
1.0005722	-1.6809368
1.1003648	-1.6904595
1.2007875	-1.7708420
1.3004114	-1.9685391
1.4002880	-2.0595126
1.5003387	-2.2017558
1.6003515	-2.3153341
1.7002778	-2.3984556
1.8003896	-2.5494492
1.9003095	-2.6847911
2.0003709	-2.6913297
2.1003799	-2.6163838
2.2003643	-2.6865904
2.3003461	-2.7007334
2.4008691	-2.7816739
2.5004378	-2.8349447
2.6003300	-2.8148336
2.7003786	-2.8220744
2.8003226	-2.8411312
2.9003543	-2.9394786
3.0003369	-3.1159468
3.1003151	-3.1785426
3.2004401	-3.2446713
3.3004467	-3.2468791
3.4003666	-3.2454894
3.5002396	-3.2578640
3.6005929	-3.2822473
3.7004186	-3.1835775
3.8004119	-3.0814915
3.9003461	-3.1240816
4.0003476	-3.2905595
4.1004352	-3.4141467
4.2003162	-3.5458024
4.3003118	-3.6613350
4.4003018	-3.7179630
4.5003359	-3.7645807
4.6002624	-3.7126806
4.7003866	-3.6502876
4.8003254	-3.4505281
4.9003602	-3.3257165
5.0003666	-3.4319415
5.1003602	-3.5482926
5.2002465	-3.6199925
5.3007053	-3.7964575
5.4003515	-3.7573006
5.5002801	-3.7882113
5.6002862	-3.7251637
5.7003456	-3.6016822
5.8003625	-3.5080991
5.9003715	-3.4325874
6.0003377	-3.3924546
6.1004449	-3.3652089
6.2002821	-3.4456244
6.3004242	-3.4330039
6.4003497	-3.4390540
6.5002780	-3.4202862
6.6004342	-3.3612750
6.7003638	-3.3965313
6.8003743	-3.3548985
6.9004275	-3.3140368
7.0003528	-3.2607434
7.1003446	-3.0790935
7.2002330	-3.0527530
7.3003574	-3.0187781
7.4004188	-2.8896356
7.5003389	-2.8800693
7.6003763	-2.8054645
7.7007009	-2.8270245
7.8008097	-2.8393602
7.9004127	-2.7537014
8.0003543	-2.7469938
8.1003786	-2.6975095
8.2008835	-2.6731472
8.3003121	-2.6379838
8.4003441	-2.5751681
8.5002138	-2.5561128
8.6003924	-2.5505002
8.7003067	-2.5992622
8.8008323	-2.6317079
8.9003062	-2.5952089
9.0003297	-2.5982299
9.1007027	-2.5688004
9.2005673	-2.4569006
9.3003715	-2.3285954
9.4005514	-2.1366308
9.5003494	-2.0090373
9.6009060	-1.9549682
9.7002726	-1.8745515
9.8003133	-1.8483799
9.9004055	-1.7322224
10.0003238	-1.6470412
10.1003830	-1.5383744
10.2004329	-1.5543759
10.3003592	-1.5351177
10.4004073	-1.6258146
10.5003282	-1.7162579
10.6003840	-1.6725106
10.7003712	-1.6059953
10.8003958	-1.5701202
10.9002918	-1.4901723
11.0003046	-1.3515449
11.1007918	-1.3124859
11.2003546	-1.3536348
11.3003341	-1.4429221
11.4003564	-1.5572805
11.5003251	-1.6639916
11.6003983	-1.7312901
11.7004122	-1.8368037
11.8002964	-1.9983960
11.9003574	-2.0227251
12.0003525	-1.9598655
12.1002138	-1.8892522
12.2003331	-1.7527300
12.3003052	-1.6395916
12.4004014	-1.4886497
12.5004436	-1.4639422
12.6003599	-1.5799906
12.7003845	-1.6470908
12.8002772	-1.8321460
12.9003528	-2.0703945
13.0004006	-2.2537813
13.1003756	-2.2303679
13.2003661	-2.1912909
13.3003372	-2.0892255
13.4003615	-2.0655944
13.5002844	-2.0869439
13.6003548	-2.0164139
13.7003579	-2.0520656
13.8003167	-2.1202691
13.9003530	-2.1841884
14.0002785	-2.3791342
14.1003684	-2.6198304
14.2004024	-2.9878349
14.3004019	-3.2659051
14.4004127	-3.3451769
14.5004255	-3.3428442
14.6003484	-3.3016858
14.7004078	-3.1974053
14.8003507	-3.1751540
14.9003971	-3.2295270
15.0003638	-3.1363184
15.1003679	-3.0907149
15.2003492	-3.1885355
15.3004009	-3.4117823
15.4003963	-3.6254141
15.5004549	-4.0538573
15.6003953	-4.1969218
15.7003377	-4.1455703
15.8003052	-3.8506114
15.9003722	-3.4704101
16.0003072	-3.0814366
16.1004017	-2.7989597
16.2003820	-2.8120351
16.3003768	-3.0572608
16.4003804	-3.4387162
16.5003402	-3.6844571
16.6003156	-4.0011215
16.7002870	-4.3251472
16.8002911	-4.4827619
16.9003215	-4.4146857
17.0003336	-4.1520748
17.1003686	-3.9302235
17.2002847	-3.8321638
17.3003438	-3.7170148
17.4003244	-3.7474678
17.5003676	-3.7682757
17.6003392	-3.7895436
17.7004127	-3.8189778
17.8002450	-3.8450134
17.9003699	-3.6956801
18.0008261	-3.5504308
18.1002132	-3.6523473
18.2004805	-3.6114950
18.3006520	-3.9095306
18.4003343	-4.3082876
18.5002872	-4.6292357
18.6002570	-4.4966397
18.7003159	-4.3755102
18.8004183	-4.2210164
18.9002601	-4.1182427
19.0004252	-4.1214814
19.1003354	-4.2008877
19.2002294	-4.2395387
19.3003876	-4.4051471
19.4004147	-4.4536648
19.5003556	-4.5183535
19.6003320	-4.4556766
19.7003924	-4.4338198
19.8003622	-4.4949884
19.9004321	-4.4383831
20.0003935	-4.4736094
20.1003484	-4.5060234
20.2002852	-4.5594802
20.3007388	-4.5253038
20.4003766	-4.5179830
20.5003725	-4.5852203
20.6003510	-4.5118971
20.7002936	-4.5063062
20.8003318	-4.4468637
20.9003822	-4.4700928
21.0003441	-4.3562908
21.1003159	-4.3672442
21.2003402	-4.3217235
21.3002476	-4.3370833
21.4003945	-4.3122363
21.5003630	-4.1733351
21.6003663	-4.0584192
21.7003213	-4.0356131
21.8003328	-4.0105791
21.9003599	-3.8948903
22.0003372	-3.8280230
22.1003850	-3.8574774
22.2003937	-3.8987713
22.3007844	-3.8598628
22.4004705	-3.7637212
22.5004321	-3.7468364
22.6003953	-3.8034282
22.7003441	-3.7645721
22.8003190	-3.6663425
22.9002386	-3.5700743
23.0003092	-3.5334079
23.1003722	-3.8400505
23.2003651	-3.9741726
23.3003978	-4.4513259
23.4003082	-4.3237109
23.5003617	-4.0521054
23.6002816	-4.0152259
23.7003633	-3.9308529
23.8003351	-3.7531869
23.9002563	-3.7606137
24.0003904	-3.7218318
24.1004529	-3.5840116
24.2003095	-3.6794777
24.3003364	-3.8877048
24.4003482	-4.2390022
24.5003453	-4.0880399
24.6002301	-3.8750036
24.7003026	-3.5561297
24.8004357	-3.4396195
24.9004357	-3.4241011
25.0004296	-3.7151284
25.1003955	-3.9993761
25.2003446	-4.2296286
25.3004009	-4.0886216
25.4002967	-3.9211912
25.5004009	-3.7061648
25.6003960	-3.8982363
25.7002675	-3.6251774
25.8003039	-3.3788664
25.9004224	-3.5652368
26.0003374	-3.7610586
26.1004106	-3.9140520
26.2004426	-4.1699991
26.3002563	-4.1652570
26.4002708	-3.8598859
26.5003034	-3.6741793
26.6003510	-3.5465610
26.7003471	-3.6814320
26.8002895	-3.9662564
26.9002957	-4.1426945
27.0003968	-3.8979127
27.1003425	-3.6317339
27.2003249	-3.3347106
27.3004472	-3.2362800
27.4003218	-3.3649616
27.5002340	-3.6430590
27.6003520	-3.7624447
27.7005750	-3.8763740
27.8002483	-3.9843993
27.9003635	-3.9211671
28.0003812	-3.6899574
28.1007014	-3.5604310
28.2003277	-3.2360191
28.3004547	-3.2374575
28.4008248	-3.3797045
28.5003489	-3.6109653
28.6002755	-3.8053172
28.7003517	-3.8370776
28.8003156	-3.7511237
28.9004308	-3.6259792
29.0004613	-3.3586748
29.1003779	-3.1987505
29.2004163	-3.1968589
29.3003622	-3.3309703
29.4003397	-3.4706590
29.5003041	-3.4884970
29.6003254	-3.5468457
29.7003579	-3.6321733
29.8003187	-3.6276815
29.9005271	-3.7046177
30.0004168	-3.5740745
30.1002243	-3.4461415
30.2002829	-3.2231259
30.3003625	-3.1904614
30.4003377	-3.0894067
30.5003412	-2.9942238
30.6003676	-2.9285541
30.7003497	-2.8207140
30.8003190	-3.0464220
30.9003651	-2.9635744
31.0003863	-2.8174188
31.1003904	-2.7484074
31.2004613	-2.6343248
31.3003776	-2.5371559
31.4003860	-2.3872690
31.5003832	-2.1672039
31.6005020	-1.8470563
31.7003843	-1.5508572
31.8003359	-1.4683856
31.9003295	-1.4018887
32.0003725	-1.3538202
32.1003781	-1.3664013
32.2003507	-1.3669534
32.3002573	-1.4445541
32.4003523	-1.4239407
32.5003909	-1.2909001
32.6003338	-1.1125809
32.7003822	-0.7109941
32.8003436	-0.5337180
32.9003215	-0.3511732
33.0003901	-0.2370639
33.1003205	-0.3400771
33.2004490	-0.5628970
33.3002906	-0.6164685
33.4003085	-0.7159328
33.5003441	-0.5163653
33.6002959	-0.3861484
33.7002926	-0.2459710
33.8002880	-0.1588713
33.9003305	-0.0951247
34.0004518	0.0393456
34.1003604	0.1280793
34.2004014	0.1460329
34.3002939	-0.0175697
34.4003372	-0.1000132
34.5004611	-0.1876048
34.6004273	-0.0453889
34.7003860	0.0175835
34.8002957	0.0142086
34.9004022	0.0884916
35.0002501	-0.0264101
35.1003456	-0.0594778
35.2003064	-0.0910104
35.3002888	0.0349000
35.4003988	-0.0022775
35.5003279	0.0193869
35.6007311	-0.0300920
35.7003704	-0.0787228
35.8004288	-0.3816273
35.9004191	-0.5890940
36.0004518	-0.7675155
36.1003269	-0.6430015
36.2003523	-0.5308432
36.3003090	-0.4923117
36.4003653	-0.4264356
36.5004316	-0.4043706
36.6004122	-0.2798745
36.7003348	-0.1638181
36.8002957	-0.0994293
36.9003643	-0.2408333
37.0003548	-0.4058469
37.1002954	-0.5366306
37.2002701	-0.5576738
37.3003313	-0.4155927
37.4004140	-0.3304646
37.5003569	-0.2567132
37.6003523	-0.1332984
37.7002947	-0.1184729
37.8007670	-0.1265482
37.9005048	-0.1747385
38.0002883	-0.2107016
38.1003717	-0.1890327
38.2007414	-0.1226770
38.3004260	-0.0094323
38.4003476	0.1485402
38.5002796	0.2900482
38.6004795	0.1439304
38.7002947	0.1012693
38.8009697	0.0651235
38.9004145	0.2247113
39.0003750	0.3311372
39.1004316	0.3781130
39.2003932	0.4046146
39.3003487	0.3728871
39.4003994	0.2589040
39.5003520	0.3143155
39.6003868	0.4281856
39.7003364	0.5305319
39.8003643	0.6263287
39.9002468	0.6735612
40.0003190	0.6822895
40.1003049	0.6378868
40.2003615	0.6509930
40.3003786	0.6475751
40.4002660	0.5939202
40.5003366	0.6432871
40.6003932	0.6757357
40.7003121	0.7059591
40.8008612	0.7431971
40.9003182	0.6345939
41.0004864	0.5995546
41.1003415	0.5503852
41.2003464	0.6309670
41.3003474	0.6780494
41.4003822	0.6958687
41.5002857	0.7332728
41.6003633	0.7735953
41.7003069	0.7768313
41.8003200	0.8411471
41.9005463	0.8753490
42.0004316	0.8284919
42.1003692	0.7521355
42.2002957	0.7690126
42.3004462	0.8508454
42.4003930	0.8085088
42.5003292	0.8147767
42.6003336	0.8212120
42.7003487	0.8577741
42.8004308	1.0044149
42.9004268	0.9975014
43.0004301	0.9707333
43.1002839	0.9538528
43.2003615	0.9399589
43.3003195	0.9496374
43.4007263	0.9603880
43.5003502	0.9300393
43.6003633	0.9465722
43.7003476	0.8970835
43.8004436	0.8847302
43.9003860	0.9129195
44.0004060	0.9575641
44.1003738	0.9340262
44.2003671	0.9313303
44.3003656	0.7994510
44.4003556	0.7974281
44.5003712	0.7726011
44.6002954	0.6951332
44.7003663	0.6291978
44.8002696	0.5343806
44.9003395	0.5246792
45.0002381	0.4986640
45.1003069	0.4950269
45.2003661	0.5293847
45.3003395	0.4966724
45.4003707	0.5234636
45.5004060	0.5799528
45.6003290	0.6024581
45.7003873	0.6309913
45.8003108	0.6388301
45.9003584	0.6684350
46.0003991	0.6537840
46.1002606	0.6583060
46.2004449	0.7290010
46.3007475	0.7860420
46.4005171	0.6870243
46.5003748	0.5775353
46.6004657	0.4790851
46.7003809	0.4192907
46.8003850	0.4058528
46.9003387	0.4436643
47.0004452	0.3914711
47.1002826	0.3845789
47.2003732	0.4594207
47.3004516	0.3171068
47.4002893	0.3237900
47.5003466	0.3452395
47.6003566	0.3156016
47.7002888	0.3222434
47.8003520	0.4346989
47.9004193	0.3222716
48.0007091	0.2542467
48.1003955	0.2156004
48.2003443	0.3489658
48.3003315	0.4676718
48.4003034	0.4862510
48.5003699	0.3947190
48.6006702	0.3104458
48.7004252	0.2911346
48.8003564	0.2418760
48.9003768	0.2846129
49.0003359	0.2565395
49.1004490	0.2236793
49.2006111	0.1764173
49.3003963	0.1763659
49.4003988	0.1602947
49.5004262	0.1860778
49.6003540	0.1614002
49.7003965	0.1221927
49.8003658	0.0500101
49.9007675	-0.0257040
50.0004078	-0.0107611
50.1003377	-0.0438462
50.2003653	-0.0552487
50.3004306	-0.1261546
50.4002816	-0.1677007
50.5003279	-0.2260714
50.6003348	-0.2627639
50.7003546	-0.3294925
50.8003712	-0.3715834
50.9002742	-0.4301483
51.0003771	-0.4351426
51.1003699	-0.4378070
51.2006597	-0.3393652
51.3004055	-0.3458706
51.4003732	-0.4043966
51.5003182	-0.5098231
51.6003302	-0.4357032
51.7003768	-0.4161901
51.8006674	-0.4954379
51.9004588	-0.4887611
52.0002683	-0.5574902
52.1008197	-0.5141600
52.2004229	-0.4818043
52.3004022	-0.4442695
52.4003348	-0.3684016
52.5002918	-0.3091834
52.6004070	-0.3960021
52.7004211	-0.4220132
52.8004301	-0.5220879
52.9003535	-0.5257442
53.0003768	-0.4928063
53.1002893	-0.4063938
53.2003561	-0.3503980
53.3003139	-0.2622609
53.4004155	-0.2780740
53.5003494	-0.3617506
53.6003192	-0.4910032
53.7004106	-0.5026229
53.8003372	-0.4454523
53.9003169	-0.3924023
54.0004283	-0.3797563
54.1002939	-0.4432364
54.2003487	-0.5544161
54.3006006	-0.6386724
54.4005348	-0.7203783
54.5003095	-0.7691324
54.6003668	-0.7409484
54.7003031	-0.7583335
54.8002934	-0.7113484
54.9003154	-0.7574715
55.0003269	-0.7844905
55.1002913	-0.8257787
55.2004055	-0.7742596
55.3003343	-0.7084708
55.4004902	-0.6831967
55.5003932	-0.6861591
55.6002808	-0.6567711
55.7004091	-0.6172704
55.8003098	-0.6661731
55.9003525	-0.6866535
56.0003587	-0.6197975
56.1004511	-0.5992523
56.2003615	-0.6330501
56.3004157	-0.6147766
56.4003809	-0.6633905
56.5004004	-0.6303296
56.6003062	-0.6614023
56.7002209	-0.6639344
56.8002529	-0.7012472
56.9003141	-0.6647409
57.0003661	-0.6296086
57.1002639	-0.6773279
57.2005701	-0.6268355
57.3003087	-0.6060144
57.4003881	-0.6421822
57.5003622	-0.6705476
57.6002627	-0.6005907
57.7003241	-0.5739741
57.8003154	-0.4859520
57.9003487	-0.5633466
58.0003520	-0.5507818
58.1004477	-0.4906834
58.2003840	-0.4686489
58.3004332	-0.5112734
58.4003658	-0.4933790
58.5003241	-0.5479799
58.6004229	-0.5951250
58.7003523	-0.6319141
58.8003471	-0.5508631
58.9004659	-0.5187036
59.0004260	-0.5459471
59.1002721	-0.5465221
59.2003302	-0.5229330
59.3003525	-0.4871214
59.4003535	-0.4041502
59.5002747	-0.3964970
59.6003087	-0.4237057
59.7003220	-0.4189449
59.8003464	-0.3939086
59.9003328	-0.3340546
60.0003607	0.0000000
60.0869079	0.0000000
71.3786842	0.0000000
71.3794772	0.0000000
71.4003011	0.0000000
71.5001818	0.0000000
71.6003436	0.0000000
71.7003937	0.0000000
71.8003894	0.0000000
71.9003305	0.0000000
72.0003855	0.0000000
72.1003574	0.0000000
72.2003776	0.0000000
72.3002931	0.0000000
72.4003502	0.0000000
72.5002516	0.0000000
72.6003300	0.0000000
72.7003812	0.0000000
72.8002765	0.0000000
72.9004004	0.0000000
73.0002762	0.0000000
73.1003013	0.0000000
73.2003763	0.0000000
73.3003996	0.0000000
73.4002867	0.0000000
73.5003835	0.0000000
73.6004083	0.0000000
73.7003318	0.0000000
73.8004101	0.0000000
73.9003576	0.0000000
74.0003950	0.0000000
74.1003474	0.0000000
74.2003881	0.0000000
74.3002422	0.0000000
74.4002714	0.0000000
74.5003661	0.0000000
74.6003812	0.0000000
74.7003699	0.0000000
74.8003914	0.0000000
74.9004188	0.0000000
75.0003789	0.0000000
75.1003988	0.0000000
75.2003333	0.0000000
75.3003144	0.0000000
75.4003146	0.0000000
75.5002194	0.0000000
75.6001958	0.0000000
75.7003397	0.0000000
75.8003894	0.0000000
75.9003543	0.0000000
76.0003331	0.0000000
76.1003896	0.0000000
76.2002470	0.0000000
76.3004380	0.0000000
76.4005686	0.0000000
76.5004308	0.0000000
76.6003668	0.0000000
76.7003487	0.0000000
76.8003420	0.0000000
76.9003699	0.0000000
77.0004913	0.0000000
77.1003474	0.0000000
77.2003584	0.0000000
77.3003517	0.0000000
77.4003336	0.0000000
77.5004908	0.0000000
77.6004029	0.0000000
77.7003730	0.0000000
77.8003333	0.0000000
77.9003625	0.0000000
78.0003505	0.0000000
78.1004600	0.0000000
78.2003968	0.0000000
78.3002949	0.0000000
78.4003735	0.0000000
78.5002688	0.0000000
78.6003305	0.0000000
78.7004186	0.0000000
78.8002760	0.0000000
78.9003133	0.0000000
79.0003840	0.0000000
79.1003395	0.0000000
79.2006564	0.0000000
79.3003863	0.0000000
79.4003709	0.0000000
79.5004549	0.0000000
79.6002913	0.0000000
79.7004406	0.0000000
79.8002985	0.0000000
79.9003950	0.0000000
80.0002639	0.0000000
80.1003935	0.0000000
80.2003986	0.0000000
80.3002744	0.0000000
80.4003443	0.0000000
80.5002952	0.0000000
80.6003489	0.0000000
80.7003533	0.0000000
80.8003492	0.0000000
80.9003484	0.0000000
81.0003241	0.0000000
81.1003548	0.0000000
81.2003510	0.0000000
81.3003602	683.8068237
81.4003717	162.4423218
81.5004375	57.6356888
81.6003492	33.5392151
81.7004265	26.8305016
81.8004321	24.3144054
81.9003707	23.3782997
82.0003592	22.9263287
82.1003515	22.6140804
82.2003430	22.1831207
82.3003308	21.5279827
82.4003087	20.1039429
82.5002926	20.2420883
82.6003858	19.3171024
82.7002596	18.5194263
82.8002611	18.9784584
82.9005460	18.3653240
83.0002993	17.6508026
83.1003553	17.5458488
83.2002765	17.0149174
83.3003018	16.3870754
83.4003630	15.7327633
83.5004132	15.1208515
83.6003640	14.6834488
83.7003028	14.2729149
83.8005253	13.8596020
83.9002703	13.5275249
84.0004047	13.1740265
84.1003520	12.8604889
84.2002527	12.3754988
84.3003630	11.8880796
84.4003763	11.4991226
84.5004191	11.3733797
84.6003622	11.4243679
84.7003963	11.5518398
84.8003395	11.4320412
84.9004206	11.1692629
85.0001989	10.3235321
85.1003085	10.7499933
85.2004052	10.2801704
85.3003666	10.1911077
85.4003740	10.6440058
85.5004716	10.2682858
85.6003858	9.7198992
85.7003574	9.7533922
85.8004475	9.7734127
85.9002962	10.0438938
86.0002120	10.4360580
86.1003310	10.8767509
86.2007475	11.2949371
86.3002842	11.4178619
86.4004193	11.4392538
86.5003267	11.3528681
86.6003433	11.3028212
86.7003018	11.2178068
86.8003635	10.9159517
86.9003860	10.5955648
87.0004301	10.1906347
87.1004124	9.8075285
87.2002798	9.3938322
87.3003676	9.0283384
87.4003891	8.7472725
87.5003850	8.3582287
87.6003827	7.6666079
87.7003126	7.6962776
87.8003054	7.2024798
87.9003011	6.6721001
88.0004232	6.5921555
88.1002706	6.3993759
88.2003251	6.2658124
88.3002849	6.0332780
88.4002358	5.5300941
88.5003476	4.8774776
88.6003924	4.2519541
88.7002903	4.0302520
88.8004170	4.4673162
88.9003686	4.8664980
89.0003190	5.0545664
89.1003743	4.9463081
89.2004247	4.5807829
89.3003003	4.3066692
89.4003848	4.3811054
89.5003228	4.5042210
89.6003438	4.4212027
89.7004101	4.2083321
89.8002990	4.0731173
89.9003146	3.7433424
90.0002834	3.6911244
90.1003000	3.4473000
90.2003843	3.0690718
90.3003031	3.3953865
90.4002934	3.1822450
90.5003133	2.8417351
90.6003300	3.2630141
90.7002563	2.9726496
90.8005371	2.8400733
90.9004380	2.6739285
91.0003640	2.5449114
91.1005130	2.6122098
91.2004024	2.5156999
91.3003351	2.3114381
91.4003827	2.0983207
91.5003400	2.0685875
91.6003676	1.9506074
91.7004035	1.8494008
91.8003750	1.6559212
91.9004170	1.6895195
92.0003502	1.6519439
92.1004193	1.4840221
92.2003679	1.2435111
92.3003105	0.9149876
92.4003377	0.8137544
92.5003830	0.6951322
92.6004091	0.5691519
92.7004431	0.4080052
92.8003028	0.0403657
92.9003715	0.1012898
93.0003551	-0.1784617
93.1003256	-0.3787678
93.2003372	-0.3530114
93.3003756	-0.5744830
93.4002921	-0.7398167
93.5004372	-0.8863918
93.6002762	-1.1131504
93.7004774	-1.1740251
93.8003914	-1.4220960
93.9004273	-1.6528407
94.0004339	-1.8114868
94.1003781	-1.9055319
94.2004759	-1.9564272
94.3004795	-2.0532842
94.4003126	-2.2140350
94.5003843	-2.4048636
94.6002734	-2.5004761
94.7002980	-2.7022085
94.8004204	-2.9324574
94.9002944	-3.0501394
95.0003543	-3.2659993
95.1003556	-3.5083005
95.2003356	-3.3429270
95.3002752	-3.5764668
95.4003610	-3.8851292
95.5003635	-3.9443209
95.6003830	-4.2068071
95.7004308	-4.3600345
95.8003287	-4.1921029
95.9003197	-4.1060014
96.0003361	-3.9202173
96.1003021	-3.7945194
96.2003809	-3.6848712
96.3005578	-3.6717086
96.4006152	-3.7030170
96.5003269	-3.7207232
96.6003784	-3.6982274
96.7003817	-3.4775288
96.8003753	-3.6227288
96.9005632	-3.8127172
97.0004035	-4.2127700
97.1003505	-4.4296045
97.2006605	-4.2290421
97.3003948	-4.0018377
97.4004157	-3.8336716
97.5004539	-3.6541121
97.6003658	-3.6850960
97.7003000	-3.6378372
97.8003210	-3.6728110
97.9003251	-3.7421651
98.0004562	-3.9528887
98.1003474	-3.7689271
98.2003576	-3.5787356
98.3003282	-3.4551501
98.4004109	-3.6963527
98.5004247	-4.1315088
98.6002721	-4.3741817
98.7003098	-4.4083676
98.8003192	-4.3382468
98.9003686	-4.2655115
99.0002772	-4.2272282
99.1004173	-4.2728777
99.2002312	-4.2320700
99.3003963	-4.0472598
99.4003487	-3.8822076
99.5004198	-3.8049107
99.6003866	-3.9082465
99.7002918	-3.9405785
99.8004081	-3.8885887
99.9004401	-3.8397639
100.0003889	-3.8195727
100.1004413	-3.8471503
100.2002765	-3.8631730
100.3003561	-3.7486887
100.4003397	-4.0313201
100.5003597	-3.8299246
100.6003021	-3.6192586
100.7003699	-3.8295171
100.8003407	-3.9512982
100.9003953	-4.1016378
101.0003292	-4.1485610
101.1003011	-4.1247272
101.2003226	-4.1731620
101.3003154	-4.1192250
101.4003725	-4.1022482
101.5003848	-4.1220737
101.6002821	-4.1080446
101.7003753	-4.0202169
101.8003907	-3.8842816
101.9004099	-3.8525736
102.0003103	-3.7549937
102.1005955	-3.6397893
102.2004664	-3.5605764
102.3003896	-3.7323055
102.4003282	-4.0716243
102.5002862	-4.5357237
102.6002865	-4.7020369
102.7003420	-4.5827079
102.8003794	-4.5279107
102.9002916	-4.2197380
103.0004232	-4.4014926
103.1003825	-4.1415715
103.2004252	-3.9502170
103.3002929	-4.1378999
103.4002240	-4.1020064
103.5003425	-3.9810472
103.6003169	-4.0328541
103.7004303	-4.0042243
103.8006144	-3.9562736
103.9003149	-3.9616492
104.0002081	-3.8963974
104.1003694	-3.7639089
104.2003318	-3.7176018
104.3002988	-3.6056223
104.4002854	-3.4914997
104.5002985	-3.5324578
104.6003192	-3.8324773
104.7003876	-4.0627193
104.8003492	-4.3073864
104.9003343	-4.2591991
105.0004099	-4.0874953
105.1004275	-3.7829754
105.2002627	-3.6858888
105.3004616	-3.5504241
105.4004227	-3.5816033
105.5003359	-3.4882097
105.6003436	-4.0748940
105.7003779	-4.2611909
105.8003761	-4.2936654
105.9004462	-4.2471609
106.0003500	-3.9605374
106.1002683	-3.7354267
106.2003046	-3.6428933
106.3003044	-3.6735952
106.4003745	-3.9099159
106.5003244	-4.3286457
106.6003832	-4.5589705
106.7004193	-4.4256368
106.8003848	-4.2707753
106.9003548	-4.0216641
107.0003054	-3.7481220
107.1003924	-3.5780270
107.2003807	-3.5242262
107.3005038	-3.6745172
107.4003118	-4.0439444
107.5003625	-4.3108945
107.6003476	-4.3856792
107.7003003	-4.1431427
107.8005110	-3.8029933
107.9004058	-3.9338012
108.0003075	-3.7115123
108.1004462	-3.5888467
108.2003953	-3.7024953
108.3003075	-3.6693478
108.4003686	-3.7828760
108.5003259	-4.1085339
108.6003233	-4.2849965
108.7003551	-4.3436670
108.8003016	-4.2021699
108.9003889	-3.9606624
109.0003681	-3.8125899
109.1002870	-3.7278214
109.2003635	-3.5565381
109.3003876	-3.5939779
109.4002358	-3.7113447
109.5003226	-3.9423528
109.6002132	-3.9009893
109.7002353	-3.7371821
109.8003789	-3.5037818
109.9005046	-3.3394377
110.0003318	-3.1327884
110.1004106	-3.3763351
110.2003320	-3.8488934
110.3003924	-4.0834203
110.4003628	-4.1506157
110.5004211	-4.1210194
110.6004150	-4.0622792
110.7005914	-3.8914287
110.8004124	-4.2475853
110.9003333	-3.9816914
111.0003297	-3.8913751
111.1003684	-3.8247476
111.2003666	-3.6858218
111.3003384	-3.5900488
111.4003528	-3.6067286
111.5002250	-3.8421333
111.6003566	-4.4135160
111.7003715	-4.6985159
111.8003850	-5.0200334
111.9003218	-5.1397700
112.0004372	-4.9425349
112.1003740	-4.7841659
112.2003072	-4.5228076
112.3004749	-4.3467255
112.4003180	-4.3024406
112.5003410	-4.3036361
112.6007183	-4.0627899
112.7003715	-3.9102116
112.8003177	-3.8594389
112.9003932	-4.0263362
113.0004086	-3.8604441
113.1003482	-4.1358685
113.2003768	-3.8145652
113.3006930	-3.8729813
113.4003123	-4.1031713
113.5003594	-4.0394559
113.6002755	-3.9587979
113.7003177	-3.9816737
113.8003471	-3.9413111
113.9003520	-3.8033018
114.0003118	-3.7644484
114.1003615	-3.7214992
114.2007921	-3.6492620
114.3009116	-3.6123543
114.4003604	-3.7925026
114.5003407	-4.2509270
114.6003167	-4.5627646
114.7003924	-4.7643204
114.8004457	-4.7046037
114.9002383	-4.2290893
115.0002831	-3.7175868
115.1003474	-3.7362266
115.2004198	-3.7180722
115.3003817	-3.7135503
115.4004012	-3.7722428
115.5002614	-3.5672514
115.6002092	-3.2648997
115.7004068	-3.4625509
115.8005412	-3.6143732
115.9002683	-3.7780786
116.0003269	-4.1009655
116.1001805	-4.2217140
116.2004306	-4.3589835
116.3002332	-4.2502623
116.4003182	-3.8377399
116.5003866	-3.4418912
116.6002327	-3.1733823
116.7003871	-3.1612711
116.8005258	-3.2808847
116.9003423	-3.2897813
117.0004244	-3.3797939
117.1004114	-3.5208545
117.2006141	-3.6859000
117.3003748	-3.7941418
117.4003400	-3.8218696
117.5003909	-3.5311728
117.6003256	-3.2798555
117.7002755	-3.1621284
117.8003098	-3.1802504
117.9003791	-3.2544949
118.0003249	-3.2868252
118.1003564	-3.2178578
118.2003121	-2.8996427
118.3004101	-3.0190442
118.4003794	-2.7071311
118.5004122	-2.4716318
118.6003907	-2.6581237
118.7003425	-2.5957351
118.8003500	-2.5069056
118.9003459	-2.5600545
119.0004756	-2.3521876
119.1003697	-2.0780437
119.2004096	-2.0543604
119.3004012	-1.9067683
119.4003971	-1.8364878
119.5003950	-1.7025696
119.6003241	-1.6285586
119.7003791	-1.4768746
119.8003277	-1.2165201
119.9002104	-1.0977206
120.0003479	-0.8413442
120.1003948	-0.8883382
120.2003581	-0.7631220
120.3003796	-0.5703533
120.4004969	-0.3851938
120.5004262	-0.1335452
120.6003551	-0.2111352
120.7003517	0.3532424
120.8004157	0.5343878
120.9003625	0.4797826
121.0004160	0.8088849
121.1003443	1.1576196
121.2001352	1.2120167
121.3002322	1.4803030
121.4002568	1.5376322
121.5001577	1.7591177
121.6003415	1.7885839
121.7003807	2.0384333
121.8002752	2.1955435
121.9004183	2.1744804
122.0003310	2.3319280
122.1003438	2.4511838
122.2003474	2.5565054
122.3004342	2.9663846
122.4003182	3.0219412
122.5003436	3.3957138
122.6002488	3.6354380
122.7003484	3.7553160
122.8003087	3.9380965
122.9003305	4.1070356
123.0004913	4.1083889
123.1004355	4.5493822
123.2003464	4.5423369
123.3003635	4.7317190
123.4004122	5.1375299
123.5003341	5.0384264
123.6002801	5.2371569
123.7004460	5.0261650
123.8004188	4.5673332
123.9003704	4.1946225
124.0003868	4.3607931
124.1003853	4.8934569
124.2003763	5.1642232
124.3003090	5.3446989
124.4004575	4.9681063
124.5003208	4.4957237
124.6003121	4.2603559
124.7003471	4.2202349
124.8003566	4.5200028
124.9003172	4.9489317
125.0003167	5.1964960
125.1003540	5.5456791
125.2003187	5.5802417
125.3003197	5.2055326
125.4002831	4.9494820
125.5004408	4.7162414
125.6003384	4.7171016
125.7003359	5.0781889
125.8003681	5.1967320
125.9003671	5.2795420
126.0003443	5.0223498
126.1003658	4.8284101
126.2003041	4.6784449
126.3006546	4.7299948
126.4003776	5.0587950
126.5004111	5.4215016
126.6002414	5.5576277
126.7003323	5.2087736
126.8003579	4.8545489
126.9003569	4.6241384
127.0003418	4.8582430
127.1003656	5.1615648
127.2002952	5.1502461
127.3003290	5.3022990
127.4003146	5.0153608
127.5003620	4.7756219
127.6004362	4.5715661
127.7004140	4.5787373
127.8003395	4.9548426
127.9003044	5.2759886
128.0004339	5.4432654
128.1003269	5.1343541
128.2003177	4.9313860
128.3002721	4.8068428
128.4002680	4.7924452
128.5003625	4.9556665
128.6002711	5.1099200
128.7002865	4.9637685
128.8003986	4.6243138
128.9004462	4.3361516
129.0004616	4.5019684
129.1003653	4.5722842
129.2003418	4.5980239
129.3003005	4.8178320
129.4003459	5.0315747
129.5004032	4.9688821
129.6003218	4.6014233
129.7003743	4.4442806
129.8003123	4.2699370
129.9003804	4.4298058
130.0002908	4.3643270
130.1003169	4.3933105
130.2002778	4.5945663
130.3003515	4.6368680
130.4003374	4.6856551
130.5002916	5.0336595
130.6001907	5.2677054
130.7003727	4.8697138
130.8003105	4.6009574
130.9003121	4.4962249
131.0003336	4.6521864
131.1002783	4.8008766
131.2003707	4.9598970
131.3003351	5.0773387
131.4004820	5.3756657
131.5003820	5.4802842
131.6003279	5.5040226
131.7003095	5.4213409
131.8003441	5.4017472
131.9003154	5.3331971
132.0003937	5.1866903
132.1004298	4.9994946
132.2003346	4.9669104
132.3003538	5.0269103
132.4004127	5.2022920
132.5003645	5.5939651
132.6003630	5.9058709
132.7002936	6.2838535
132.8002929	6.7475414
132.9003507	7.0212440
133.0003210	7.4778714
133.1003569	7.5679340
133.2003756	7.7686033
133.3003991	8.1984882
133.4005169	8.8114252
133.5004152	9.4380522
133.6003845	9.4789982
133.7003144	9.8005314
133.8003249	10.1281786
133.9003868	10.2426538
134.0002911	10.6271954
134.1003054	11.3253889
134.2002619	11.6152954
134.3004145	12.4868402
134.4004142	13.1151295
134.5003615	14.0410776
134.6002867	14.2194662
134.7003302	13.7983265
134.8006459	12.4726725
134.9003133	11.1673536
135.0003581	9.6271410
135.1005780	8.5996895
135.2005046	8.1364660
135.3003077	7.9643087
135.4006505	7.8614645
135.5005327	7.8145394
135.6003963	7.8063545
135.7007414	7.3472276
135.8005207	6.6269112
135.9006060	6.1940422
136.0003894	6.2139106
136.1003799	5.9816437
136.2002701	5.7481408
136.3003602	6.0001149
136.4003059	6.0918703
136.5003950	6.1134462
136.6003671	5.9130630
136.7003325	5.8506098
136.8003988	5.6401281
136.9003617	5.4035563
137.0004908	5.1369438
137.1003689	4.9704609
137.2002732	4.4496102
137.3004449	4.2603545
137.4003244	4.0885601
137.5003466	4.2421355
137.6003505	4.4506173
137.7004119	4.5594592
137.8003533	4.7550688
137.9004047	4.8687701
138.0004109	4.9988961
138.1003302	5.0527477
138.2003715	4.8310442
138.3004237	4.5291286
138.4003126	4.3892531