# Time	Input
-9.8247752	0.0000000
-9.8238610	0.0000000
-9.8000077	0.0000000
-9.6999424	0.0000000
-9.6000074	0.0000000
-9.4999908	0.0000000
-9.3998323	0.0000000
-9.3000632	0.0000000
-9.1999124	0.0000000
-9.1000335	0.0000000
-8.9995617	0.0000000
-8.8994808	0.0000000
-8.7998305	0.0000000
-8.6999941	0.0000000
-8.5997583	0.0000000
-8.4999014	0.0000000
-8.3996262	0.0000000
-8.2999286	0.0000000
-8.1999990	0.0000000
-8.0999598	0.0000000
-7.9999803	0.0000000
-7.8998920	0.0000000
-7.7999519	0.0000000
-7.6999683	0.0000000
-7.6000023	0.0000000
-7.4999101	0.0000000
-7.3998449	0.0000000
-7.2999880	0.0000000
-7.2000251	0.0000000
-7.1000512	0.0000000
-7.0000497	0.0000000
-6.8997432	0.0000000
-6.7998958	0.0000000
-6.6998500	0.0000000
-6.5996972	0.0000000
-6.4998372	0.0000000
-6.3999598	0.0000000
-6.2996237	0.0000000
-6.1999173	0.0000000
-6.0999478	0.0000000
-6.0000023	0.0000000
-5.8998062	0.0000000
-5.7999875	0.0000000
-5.6999406	0.0000000
-5.6000407	0.0000000
-5.4999444	0.0000000
-5.4000369	0.0000000
-5.2999501	0.0000000
-5.1999875	0.0000000
-5.0996746	0.0000000
-4.9999124	0.0000000
-4.8999171	0.0000000
-4.8000026	0.0000000
-4.6996890	0.0000000
-4.5999598	0.0000000
-4.4998633	0.0000000
-4.3999122	0.0000000
-4.2999401	0.0000000
-4.2000241	0.0000000
-4.1000067	0.0000000
-3.9997773	0.0000000
-3.8999332	0.0000000
-3.7999759	0.0000000
-3.6999150	0.0000000
-3.5999214	0.0000000
-3.4998881	0.0000000
-3.4000515	0.0000000
-3.2998487	0.0000000
-3.2000200	0.0000000
-3.0998676	0.0000000
-2.9997865	0.0000000
-2.8999997	0.0000000
-2.8000579	0.0000000
-2.6999980	0.0000000
-2.5999552	0.0000000
-2.4999398	0.0000000
-2.3999624	0.0000000
-2.3000412	0.0000000
-2.1999841	0.0000000
-2.0997084	0.0000000
-1.9999997	0.0000000
-1.8999990	0.0000000
-1.7998961	0.0000000
-1.6999606	0.0000000
-1.5998915	0.0000000
-1.4999713	0.0000000
-1.4000246	0.0000000
-1.2999680	0.0000000
-1.1999347	0.0000000
-1.0999698	0.0000000
-0.9999401	0.0000000
-0.9000284	0.0000000
-0.7998812	0.0000000
-0.6999557	0.0000000
-0.5999194	0.0000000
-0.4999762	0.0000000
-0.3998764	0.0000000
-0.2999890	0.0000000
-0.1999130	0.0000000
-0.1000748	0.0000000
0.0000000	-0.4300412
0.1000796	-0.5010869
0.2000115	-0.3227238
0.3000079	-0.0662526
0.3999777	-0.0855698
0.4999672	-0.2249503
0.6000174	-0.1990504
0.7001764	-0.2528162
0.7999560	-0.3330048
0.9001196	-0.2156640
1.0002588	-0.3298447
1.1000323	-0.3313852
1.2002665	-0.3778433
1.3000819	-0.5494426
1.3999890	-0.6601260
1.5000179	-0.7314451
1.6001769	-0.8074195
1.6999844	-0.7972414
1.8000230	-0.8540596
1.9000548	-0.9462324
2.0000274	-0.9373786
2.1000694	-0.9066312
2.2000579	-1.0605702
2.3000148	-1.1287676
2.4002752	-1.2312868
2.5000945	-1.3270483
2.5999708	-1.3118136
2.7000576	-1.3085679
2.7999946	-1.2855200
2.9000348	-1.3054764
3.0001802	-1.3563687
3.0999959	-1.4161543
3.2001789	-1.4797077
3.3000607	-1.5089123
3.4000023	-1.4766138
3.4999465	-1.4301254
3.6001142	-1.4251070
3.7001569	-1.4024849
3.8000246	-1.3850778
3.9000141	-1.4462500
3.9999173	-1.5422772
4.1002509	-1.5892019
4.2001423	-1.5952206
4.3000061	-1.5800346
4.4000369	-1.5776286
4.5000637	-1.6008902
4.5999992	-1.6013520
4.7000248	-1.5365543
4.8003512	-1.4730418
4.9000947	-1.4449184
5.0001027	-1.5330423
5.1002900	-1.5922363
5.1999759	-1.6759063
5.3001354	-1.8176104
5.4001308	-1.7807249
5.4999542	-1.7326393
5.5999875	-1.6742510
5.6999916	-1.5594668
5.8000090	-1.4933311
5.8999854	-1.4563115
6.0000118	-1.3566912
6.1001797	-1.3393743
6.2000041	-1.3673822
6.2999939	-1.3618437
6.4000049	-1.3725405
6.5000187	-1.3439691
6.6002452	-1.2889106
6.7000980	-1.2754446
6.8000207	-1.2073807
6.9000515	-1.1556926
7.0000852	-1.0832872
7.1001341	-0.9258268
7.2000502	-0.8977814
7.3000202	-0.8594412
7.4000970	-0.7342294
7.5000366	-0.7340482
7.5999872	-0.6471940
7.7003494	-0.6641536
7.8001382	-0.7155676
7.9001953	-0.6655705
7.9999916	-0.7089598
8.1000195	-0.6774930
8.2003433	-0.6396663
8.2999700	-0.6208264
8.4000269	-0.5727669
8.5000297	-0.5537426
8.6000266	-0.5335278
8.7000960	-0.5474694
8.8002588	-0.5393995
8.9001521	-0.4310621
9.0000584	-0.3890965
9.1003241	-0.3618768
9.2002417	-0.2733651
9.3000996	-0.2301470
9.4001500	-0.1091575
9.5000753	-0.0477925
9.6002004	-0.0069005
9.7001006	0.1002241
9.8001126	0.1345526
9.9000343	0.2603625
10.0000328	0.3623186
10.1000980	0.5018765
10.2001498	0.6161228
10.3000333	0.6879940
10.4001137	0.6861375
10.5000924	0.5502757
10.6000509	0.4768319
10.7001324	0.3570511
10.8001690	0.2353724
10.9000658	0.1541730
11.0000325	0.2506145
11.1002596	0.3509938
11.2001285	0.3923927
11.3000617	0.4497249
11.4000307	0.5070360
11.4999859	0.5485358
11.6001956	0.6595345
11.7000842	0.6687472
11.8000906	0.4554061
11.9000438	0.3592536
12.0000502	0.2687165
12.1001034	0.2012468
12.2000317	0.1863277
12.3001060	0.3001250
12.4000317	0.4727963
12.5000973	0.5215451
12.6001124	0.5614262
12.7000717	0.6718268
12.8000192	0.6674004
12.9000771	0.6128171
13.0000517	0.4888052
13.1000724	0.4050933
13.2000197	0.3900693
13.3000412	0.3109090
13.3999939	0.1695034
13.4999081	-0.0022367
13.6000320	-0.0572947
13.7000814	-0.0784481
13.8000177	0.0031606
13.9000189	0.1267841
14.0000955	0.2324894
14.1000643	0.2930139
14.2000410	0.2448410
14.3001293	0.1101429
14.4000924	0.0145210
14.5000184	-0.1137601
14.6000269	-0.2435591
14.7000645	-0.3015303
14.8001295	-0.4477718
14.9000118	-0.5798553
15.0000287	-0.5371510
15.1001795	-0.3751191
15.2000113	-0.2452918
15.3001467	-0.1609078
15.4000978	-0.1083177
15.5000625	-0.2159484
15.6000294	-0.2892611
15.7001021	-0.2770265
15.8000374	-0.1941630
15.9000474	-0.0853853
16.0000225	0.0305147
16.1001108	0.0891926
16.2000788	0.1014454
16.3000466	-0.0018052
16.4000328	-0.1915532
16.5000282	-0.2647074
16.6000364	-0.3958093
16.7001656	-0.5451210
16.8000497	-0.6500947
16.9000791	-0.6216957
17.0000228	-0.4643452
17.1000243	-0.3437914
17.1999933	-0.2961277
17.3000650	-0.2302150
17.4000013	-0.2224187
17.5001521	-0.1955726
17.6000215	-0.1507992
17.7000563	-0.1628087
17.8000148	-0.1783417
17.8999503	-0.0506659
18.0002481	0.0448656
18.1000440	0.1046763
18.2002629	0.0679997
18.3001508	-0.1259445
18.3999626	-0.4078555
18.5001452	-0.5838258
18.5999931	-0.5026293
18.7000323	-0.4725048
18.8000612	-0.4173487
18.9000932	-0.3809637
19.0001367	-0.4667189
19.1000520	-0.5212477
19.2000210	-0.5361260
19.3000735	-0.6019381
19.4001114	-0.5789906
19.5000648	-0.6177601
19.6000387	-0.5097985
19.7002870	-0.4811868
19.8001198	-0.5640070
19.9000323	-0.5734380
20.0000863	-0.7086844
20.1000812	-0.7387545
20.2001303	-0.7435840
20.3003308	-0.6722136
20.4000945	-0.6264672
20.5001774	-0.6808878
20.6000891	-0.6929581
20.7000120	-0.6828117
20.8000461	-0.7004216
20.9001454	-0.7690251
20.9999532	-0.7684704
21.1000351	-0.8052964
21.2001165	-0.7637402
21.3000310	-0.7147347
21.4000376	-0.6659660
21.5000645	-0.5422246
21.6001152	-0.4749288
21.7001464	-0.4990717
21.8000609	-0.5580811
21.9000701	-0.5217461
21.9999593	-0.4350002
22.1001134	-0.4438033
22.2000719	-0.4839010
22.3002373	-0.4665276
22.4000591	-0.4074166
22.5000379	-0.3633920
22.6000599	-0.4006998
22.7000225	-0.3183586
22.8000312	-0.2367468
22.8999916	-0.1797185
23.0002074	-0.1838172
23.1001188	-0.3690422
23.2000865	-0.5102667
23.3000023	-0.5862368
23.4000515	-0.6181166
23.5001208	-0.5816443
23.6001958	-0.5367651
23.7000325	-0.5246882
23.8000113	-0.3961442
23.9001777	-0.3564542
24.0000197	-0.3387272
24.1001057	-0.1965257
24.2001062	-0.2540399
24.3000545	-0.3707060
24.4000320	-0.5006438
24.5000425	-0.3516384
24.6002575	-0.2186069
24.7000712	-0.0760279
24.8000799	-0.0349848
24.9000819	-0.0107486
25.0000399	-0.1026489
25.1001298	-0.2123759
25.2000765	-0.2550516
25.3000502	-0.1399763
25.3999749	-0.0754308
25.5001352	-0.1919621
25.6000980	-0.1418712
25.6999872	-0.0808636
25.8000108	0.0258451
25.9001405	0.0574830
26.0000302	-0.0603607
26.1001341	-0.0499704
26.2000758	-0.1853863
26.2998838	-0.1792756
26.3998979	-0.0890969
26.5000333	-0.0336334
26.6000870	0.0040157
26.7000044	-0.0750180
26.8000156	-0.1742168
26.9000927	-0.1757220
27.0001864	-0.0168900
27.1000530	0.1283817
27.2000087	0.2386957
27.2999900	0.2583848
27.4001106	0.2512407
27.5000489	0.1328085
27.6000581	0.0887085
27.7001736	-0.0127565
27.7998966	-0.1191393
27.9000294	-0.2040356
28.0000402	-0.1790497
28.1004255	-0.1190829
28.2002737	0.0848172
28.3000835	0.1055535
28.4003092	0.0263206
28.5000860	0.0348582
28.5999859	-0.1138967
28.6999849	-0.1623313
28.8000512	-0.1563423
28.9001198	-0.1700898
29.0000814	-0.0912627
29.1001226	0.0041524
29.2000438	-0.0081841
29.3000381	-0.0593266
29.4001508	-0.1590698
29.5003428	-0.1744359
29.5999844	-0.2445024
29.7000745	-0.3498913
29.8001211	-0.3827304
29.9002076	-0.4452917
30.0000248	-0.4038206
30.0999493	-0.3633614
30.2001034	-0.4229521
30.2999762	-0.4735573
30.4000392	-0.3802696
30.5000407	-0.2025853
30.6000842	0.0312923
30.7000973	0.1531196
30.8002066	0.0447734
30.9000773	-0.0110418
31.0000136	-0.0592720
31.1000860	-0.0155223
31.2001892	-0.0154055
31.2999944	-0.0188203
31.3999380	0.0530984
31.5000532	0.1627535
31.6000991	0.4518437
31.7000863	0.7351473
31.8000348	0.8323747
31.9002350	0.8240623
32.0001162	0.8238844
32.1001469	0.8128190
32.1999826	0.8033112
32.3000261	0.7281099
32.4001418	0.6612935
32.5000261	0.6374800
32.6000566	0.6320868
32.7000005	0.7992376
32.7999826	0.9525834
32.9000684	1.1320167
33.0000358	1.3111002
33.1001377	1.3168960
33.2000330	1.1570286
33.3001541	1.0181223
33.4000481	0.9554700
33.4999992	0.9696865
33.6000092	0.9344805
33.7000929	0.9599648
33.8001628	1.0074445
33.8999900	1.1242343
34.0002954	1.2758203
34.1000635	1.4014016
34.1999962	1.4294225
34.3000100	1.3548393
34.3999941	1.1573919
34.5001382	1.0315616
34.6001016	1.1028944
34.7000287	1.2623838
34.7999798	1.3722185
34.9001797	1.4721761
35.0001062	1.4172355
35.1001580	1.2063915
35.1999649	1.0602002
35.3000653	1.0634806
35.4000584	1.1396928
35.5000671	1.2485490
35.6001851	1.2988533
35.7000402	1.3757728
35.8000942	1.2163308
35.9000233	0.8958584
36.0000988	0.7541245
36.1000348	0.7520927
36.2001098	0.8478050
36.3000392	0.9023406
36.4000978	0.9656887
36.5001065	0.9857132
36.6000975	1.0952219
36.7000305	1.2187155
36.8000228	1.2688907
36.9000686	1.1786408
37.0000986	0.9416710
37.1000443	0.7487353
37.2001697	0.6269130
37.3001050	0.6815879
37.4000794	0.7180208
37.5002189	0.7070789
37.6000968	0.7694550
37.7001769	0.8031554
37.8006026	0.8005167
37.9002061	0.7767616
38.0000018	0.7578399
38.1001157	0.8000371
38.2001436	0.8096284
38.3000087	0.8655962
38.3999877	0.9377525
38.5001375	0.9888541
38.6000538	0.9402062
38.7000097	0.9012572
38.8002243	0.8559850
38.9000609	0.8769205
38.9999660	0.8329293
39.1001231	0.7450494
39.2001766	0.7601162
39.3001856	0.7797043
39.4000146	0.7663315
39.5000760	0.7261062
39.6001224	0.6942058
39.7000607	0.7167382
39.8003343	0.7356475
39.9000573	0.7369519
40.0002066	0.6885306
40.0999969	0.6344048
40.2000801	0.6353108
40.3000507	0.6130518
40.4001152	0.5823679
40.5001741	0.6011462
40.6000748	0.6072488
40.7000965	0.6100595
40.8002312	0.5829017
40.9000973	0.5671389
41.0001457	0.5645982
41.1000788	0.5741734
41.2000463	0.6265633
41.3000253	0.6427005
41.4001226	0.5948855
41.5000847	0.5792554
41.5999990	0.6002601
41.7001144	0.6465038
41.7999997	0.7044225
41.9000924	0.7311201
42.0001083	0.7459382
42.1000497	0.7300406
42.2000297	0.7481149
42.3000509	0.7716575
42.4000735	0.7270157
42.4999447	0.7470575
42.6000922	0.7737501
42.6999992	0.8049403
42.8000525	0.8625203
42.9000991	0.8672385
43.0000428	0.8603608
43.1000256	0.8721690
43.2001042	0.8407800
43.3000200	0.8509609
43.4001969	0.8671538
43.5000701	0.8845933
43.6000873	0.9342651
43.7001144	0.8766510
43.8001206	0.8649778
43.9000671	0.8761341
44.0000330	0.8525892
44.1000300	0.8290926
44.2000026	0.8029180
44.3002040	0.7408227
44.4001434	0.7756279
44.5000348	0.7640257
44.6001288	0.6361842
44.7000617	0.5501366
44.7999803	0.4890509
44.9001777	0.4929798
44.9998459	0.5024427
45.1001510	0.4905518
45.2000596	0.5165292
45.3000102	0.5007135
45.4000883	0.5923825
45.4999803	0.6451906
45.6000351	0.6538392
45.7000182	0.6337794
45.7999478	0.6410028
45.9000156	0.6798818
46.0000205	0.6926914
46.1000719	0.7164938
46.2002813	0.7715198
46.3002865	0.8139691
46.4002916	0.7854567
46.5000238	0.7367847
46.6001254	0.6868683
46.7000420	0.6105757
46.8000276	0.5712690
46.9000525	0.5393003
47.0001329	0.4664234
47.1000694	0.4789917
47.1999997	0.5478261
47.3000847	0.5113030
47.4000763	0.5110216
47.5001139	0.5522068
47.6000289	0.4643783
47.7000264	0.5086684
47.8000120	0.5938343
47.9001009	0.5498244
48.0002176	0.5403714
48.1002565	0.5280540
48.2000463	0.6155235
48.3000374	0.6489017
48.4000061	0.6327613
48.5001016	0.6159500
48.6003412	0.5683004
48.7001464	0.5676104
48.8001293	0.5499395
48.9000558	0.5256321
49.0001958	0.5135336
49.1001541	0.4857850
49.2004887	0.5091022
49.2999683	0.5422217
49.4000655	0.5268411
49.5000573	0.4850571
49.6001103	0.4516789
49.7000512	0.3929721
49.8002708	0.3579593
49.9002166	0.3114927
50.0000182	0.3169252
50.1000361	0.3000939
50.2001444	0.3066554
50.3001316	0.2732655
50.4000550	0.2069206
50.5000922	0.1293972
50.6000251	0.0551947
50.7000438	-0.0106154
50.8000317	-0.0111968
50.8999852	0.0077337
51.0000148	0.0013229
51.0999816	0.0335677
51.2004823	0.0892134
51.3000637	0.0591332
51.4000212	-0.0005054
51.5000141	-0.0495489
51.6000256	0.0142103
51.7000330	0.0091095
51.8001487	-0.0216869
51.9001224	-0.0309041
52.0000118	-0.0286350
52.1003372	0.0035925
52.2000028	0.0160539
52.3000980	0.0123195
52.4000553	0.0806762
52.4999662	0.1129406
52.6000945	0.1075862
52.7001180	0.1153397
52.8000438	0.0531931
52.9000627	0.0503752
53.0001843	0.1040612
53.1000125	0.1519204
53.2000753	0.2263758
53.3001641	0.2649642
53.4000207	0.3010994
53.5000637	0.2653165
53.6000264	0.1668445
53.7001183	0.1752692
53.8000305	0.1820290
53.9000261	0.1644155
54.0000166	0.1425214
54.1003341	0.1197960
54.2001736	0.1479380
54.3003236	0.1007092
54.4001395	0.0472792
54.5000148	0.0143064
54.6000328	-0.0199934
54.7000535	-0.0730841
54.8000230	-0.1013779
54.9000819	-0.1045011
55.0000271	-0.0840698
55.1000901	-0.0975022
55.2000604	-0.0334025
55.3000584	0.0826537
55.4000883	0.1212057
55.5000064	0.0926214
55.6001830	0.0591828
55.7000330	0.1162341
55.8001825	0.1466210
55.9002437	0.1864842
56.0000556	0.2523218
56.1000978	0.1838738
56.2000187	0.1285134
56.3000366	0.1489201
56.4000220	0.1608304
56.5003223	0.2116678
56.6000105	0.1674331
56.6999634	0.1394336
56.8000056	0.1463905
56.9000648	0.1921357
57.0001321	0.2750089
57.1001193	0.2391082
57.2001953	0.2661973
57.3000054	0.2909640
57.4000794	0.2773778
57.5000899	0.2855501
57.5999683	0.2998476
57.7000274	0.3227910
57.8002478	0.3716561
57.9001065	0.3744923
58.0000476	0.4280869
58.1000317	0.5223764
58.2000356	0.5164508
58.3000594	0.4633442
58.4001172	0.4305094
58.5000079	0.4181783
58.6001728	0.3880794
58.7000781	0.3695750
58.8000594	0.3959411
58.8999816	0.4028140
59.0002194	0.4143930
59.1000246	0.4432583
59.2000394	0.4696516
59.2999688	0.4997452
59.4000673	0.5792479
59.5000143	0.6111408
59.6000771	0.6042953
59.6999951	0.6466540
59.8000832	0.6893904
59.8999890	0.6831295
60.0000453	0.0000000
60.0866860	0.0000000
71.3780605	0.0000000
71.3790794	0.0000000
71.4000069	0.0000000
71.5000028	0.0000000
71.6000264	0.0000000
71.7000914	0.0000000
71.8001114	0.0000000
71.9000724	0.0000000
72.0000174	0.0000000
72.1000558	0.0000000
72.1999818	0.0000000
72.3000276	0.0000000
72.4000888	0.0000000
72.5000696	0.0000000
72.6001321	0.0000000
72.6999585	0.0000000
72.7999882	0.0000000
72.9000205	0.0000000
73.0001021	0.0000000
73.1000351	0.0000000
73.2001252	0.0000000
73.3000932	0.0000000
73.4000909	0.0000000
73.5001587	0.0000000
73.6000998	0.0000000
73.7000297	0.0000000
73.8000394	0.0000000
73.9001267	0.0000000
74.0000817	0.0000000
74.1000581	0.0000000
74.1999977	0.0000000
74.3000031	0.0000000
74.3999393	0.0000000
74.5001741	0.0000000
74.5999700	0.0000000
74.6999700	0.0000000
74.8000778	0.0000000
74.8999754	0.0000000
75.0000893	0.0000000
75.0999852	0.0000000
75.2000387	0.0000000
75.3000287	0.0000000
75.4000205	0.0000000
75.4999043	0.0000000
75.6000847	0.0000000
75.7000852	0.0000000
75.7999875	0.0000000
75.9002527	0.0000000
76.0001917	0.0000000
76.0999954	0.0000000
76.2001585	0.0000000
76.3001029	0.0000000
76.4001034	0.0000000
76.5000407	0.0000000
76.6000259	0.0000000
76.7000289	0.0000000
76.8000456	0.0000000
76.9003377	0.0000000
77.0000970	0.0000000
77.1000617	0.0000000
77.2000174	0.0000000
77.3000497	0.0000000
77.4001395	0.0000000
77.5002463	0.0000000
77.5999921	0.0000000
77.6999864	0.0000000
77.8000289	0.0000000
77.9000589	0.0000000
78.0000128	0.0000000
78.1000182	0.0000000
78.2000806	0.0000000
78.3000307	0.0000000
78.4000809	0.0000000
78.4999475	0.0000000
78.6000220	0.0000000
78.7000722	0.0000000
78.7999647	0.0000000
78.9000758	0.0000000
79.0003581	0.0000000
79.1000732	0.0000000
79.2001802	0.0000000
79.3001541	0.0000000
79.4000763	0.0000000
79.5000963	0.0000000
79.5999478	0.0000000
79.7001106	0.0000000
79.8001024	0.0000000
79.9000241	0.0000000
80.0000169	0.0000000
80.1002637	0.0000000
80.2000663	0.0000000
80.3001055	0.0000000
80.4001165	0.0000000
80.5000622	0.0000000
80.6000438	0.0000000
80.7001083	0.0000000
80.8000893	0.0000000
80.9000494	0.0000000
81.0000438	0.0000000
81.1000394	0.0000000
81.2000561	0.0000000
81.2999677	-1.0990516
81.4000678	-0.9307142
81.5002445	-1.1894622
81.6000745	-1.7094239
81.6999985	-2.0338902
81.8001129	-2.0694618
81.9000829	-1.9659947
82.0000256	-1.8862151
82.1003697	-1.8545988
82.2000773	-1.8347851
82.3001567	-1.7981519
82.4001029	-1.8460342
82.5000036	-1.8220321
82.6000530	-1.7566344
82.6999677	-1.6716112
82.7999844	-1.7222657
82.9002711	-1.7482034
82.9999875	-1.8430967
83.1001331	-1.9385237
83.2002284	-1.8975651
83.3000640	-1.8388040
83.4000471	-1.8072567
83.5000361	-1.7150775
83.6002002	-1.5198845
83.6999258	-1.4435791
83.8000553	-1.4382176
83.9000200	-1.4022431
84.0000735	-1.3302872
84.1000205	-1.1917933
84.2000883	-1.1582320
84.3000538	-1.1013634
84.4000609	-0.9791589
84.5000259	-0.9254223
84.6001388	-0.8205517
84.6999997	-0.7360377
84.8000248	-0.6955926
84.9000678	-0.6258610
84.9999895	-0.5452878
85.0999473	-0.5692319
85.2001403	-0.5856879
85.3000443	-0.6614150
85.4000136	-0.7039894
85.5000579	-0.7915270
85.6000082	-0.8990197
85.7000269	-0.8458985
85.8001037	-1.0056543
85.9002427	-1.0085514
85.9999921	-0.9825163
86.1001820	-1.0138577
86.2003200	-1.0421281
86.3000182	-1.1838375
86.4000571	-1.1808382
86.5000374	-1.1485566
86.6000940	-1.1063981
86.6999946	-1.1132020
86.8000924	-1.1378554
86.8999885	-1.0928196
87.0001157	-1.0700077
87.1000645	-1.0776005
87.2000699	-1.1686285
87.3000259	-1.1845324
87.4002721	-1.1270854
87.5000778	-1.1115807
87.6002051	-1.1076978
87.7001254	-1.0132629
87.8002386	-0.9589766
87.9000238	-1.0214926
88.0000338	-1.1237808
88.0999805	-1.1972851
88.1999944	-1.3025413
88.3000474	-1.4300474
88.3999977	-1.4568988
88.5000003	-1.5018829
88.6001247	-1.5062212
88.7000302	-1.4798689
88.8000929	-1.1533707
88.9001083	-1.0141294
89.0000730	-0.8402183
89.1000737	-0.6543464
89.2002493	-0.6599760
89.3001938	-0.6054288
89.4000614	-0.5690655
89.4999844	-0.6184368
89.6000532	-0.7012047
89.7001585	-0.7415512
89.7999634	-0.7522174
89.8999898	-0.9962708
90.0001498	-1.0724844
90.1000699	-1.2409574
90.2000717	-1.2932410
90.3001818	-1.3495771
90.4001075	-1.3946160
90.5000197	-1.4749676
90.6000922	-1.4106185
90.6999967	-1.6188022
90.8000730	-1.6080409
90.9001029	-1.5602782
91.0001070	-1.6172339
91.1000868	-1.6594819
91.2001477	-1.7719696
91.3000545	-1.9200691
91.4000253	-2.0130007
91.5000712	-1.9764637
91.6000072	-1.8728439
91.7001784	-1.8373394
91.8000814	-2.0031104
91.9000154	-1.9637806
92.0002417	-2.0449238
92.1000251	-2.1904640
92.2000369	-2.2550991
92.3000397	-2.3584485
92.4000463	-2.3234649
92.5002255	-2.3585799
92.5999992	-2.4243186
92.7001270	-2.4805491
92.8000822	-2.5426974
92.9001569	-2.5946696
93.0002330	-2.6398442
93.1000036	-2.6254404
93.2000827	-2.6196759
93.2999764	-2.6739278
93.3999974	-2.6760840
93.5000627	-2.7455065
93.5999877	-2.8563960
93.7000699	-2.8016644
93.8000709	-2.8588445
93.9000312	-2.8755803
94.0000563	-2.8294625
94.1003082	-2.7415426
94.2001024	-2.6109471
94.3002332	-2.5309200
94.4001075	-2.5419309
94.5001646	-2.5840511
94.6000906	-2.5392501
94.7000625	-2.5405498
94.8000950	-2.5924010
94.9000568	-2.5370684
94.9999962	-2.6173627
95.1000033	-2.5981848
95.1999567	-2.4675069
95.3000771	-2.4813037
95.4001065	-2.4961436
95.5000573	-2.5244970
95.6001562	-2.5327210
95.7001329	-2.5464575
95.8000251	-2.4450364
95.9000164	-2.3288834
96.0001124	-2.1333234
96.0999928	-1.8854349
96.2001162	-1.6772922
96.3001667	-1.5689754
96.4003561	-1.4573725
96.4999972	-1.3319193
96.6001352	-1.1798692
96.6999956	-0.9205729
96.8000189	-0.9152130
96.9001252	-0.9285775
97.0001032	-1.0325634
97.1001505	-1.0116938
97.2003095	-0.7720717
97.3000307	-0.5892702
97.4001098	-0.4416847
97.5001682	-0.3819935
97.5999877	-0.4765263
97.6999956	-0.4721528
97.8000937	-0.5395908
97.9001073	-0.6452619
98.0000320	-0.7645584
98.1000300	-0.5359909
98.2001590	-0.3038083
98.3001728	-0.1096787
98.4000340	-0.3016281
98.5001400	-0.5557522
98.5999921	-0.6953464
98.7000369	-0.7705572
98.8001469	-0.7650784
98.9000440	-0.7332838
99.0000169	-0.7942467
99.1004088	-0.8666971
99.2001303	-0.8718758
99.3001096	-0.7744814
99.4000182	-0.5286245
99.5000868	-0.3292940
99.6001421	-0.2642028
99.7000932	-0.2198131
99.8000113	-0.1718118
99.8999757	-0.1687493
100.0000515	-0.1949078
100.1000371	-0.2955764
100.2000123	-0.3695520
100.3000033	-0.4534978
100.4000591	-0.4616633
100.5000653	-0.4286573
100.5999962	-0.4264297
100.7001103	-0.4619460
100.7999744	-0.5799532
100.9000604	-0.7144467
101.0000499	-0.6597857
101.0999982	-0.6588893
101.2000172	-0.7255194
101.3002908	-0.6881046
101.4000666	-0.6572782
101.5000323	-0.6999485
101.6000397	-0.7230999
101.7000768	-0.6436774
101.8000046	-0.5015606
101.9001641	-0.4536063
102.0001649	-0.3659220
102.1002452	-0.2373619
102.2002258	-0.1646789
102.3000333	-0.2435223
102.4000207	-0.4531264
102.5000901	-0.6758370
102.6000154	-0.6999324
102.7000614	-0.6687022
102.7999931	-0.7094568
102.9001428	-0.7373235
103.0000356	-0.7362809
103.1000914	-0.6362653
103.2000650	-0.5744151
103.2999977	-0.5237348
103.3999621	-0.4824177
103.5000714	-0.3859531
103.6000699	-0.3107085
103.7000049	-0.2505007
103.8001354	-0.1726067
103.9001539	-0.1644330
103.9999785	-0.0845561
104.1000077	0.0030903
104.1999846	0.0355104
104.3000082	0.0720781
104.3999928	0.1435857
104.5001444	0.1118230
104.6000860	-0.0394609
104.7000246	-0.1503548
104.8000294	-0.2863116
104.9000271	-0.2603405
105.0000709	-0.1706983
105.1000996	0.0659986
105.2003185	0.1425327
105.3001818	0.2475879
105.4000794	0.2203045
105.5000453	0.2895456
105.6000399	0.1498192
105.7000502	0.0317353
105.8002168	-0.0323098
105.9000248	-0.0553864
105.9999798	0.0697139
106.1000448	0.1864181
106.2001976	0.2622359
106.3001300	0.2974927
106.4000356	0.2423513
106.5000192	0.1223470
106.6001595	0.1986726
106.7000476	0.3080286
106.8000538	0.3371886
106.9000957	0.4182723
107.0001001	0.5683421
107.1002143	0.6628565
107.2000502	0.7548597
107.3001713	0.7715806
107.4000561	0.6224126
107.5000333	0.5420833
107.6000612	0.5627003
107.7002250	0.6888326
107.8000576	0.7480026
107.9000069	0.8236690
108.0001702	0.9091262
108.1002084	0.9688643
108.2000499	1.0049430
108.3001992	1.0158166
108.4001311	0.9266297
108.5000161	0.8124670
108.6000182	0.7713265
108.7001418	0.7225550
108.8000852	0.7854432
108.9000998	0.9161434
109.0000328	0.9683306
109.1000192	1.0523870
109.2000773	1.1851301
109.3000182	1.2417121
109.4000018	1.2127509
109.4999690	1.1333935
109.5999247	1.1870155
109.7000200	1.2281116
109.8000056	1.3155831
109.9001431	1.3231423
110.0000909	1.4012696
110.1001792	1.2099574
110.2000852	0.8408179
110.3000279	0.6576573
110.4001492	0.7165685
110.4999826	0.7260396
110.6000573	0.7574129
110.7001262	0.8045816
110.8000090	0.7482169
110.8999946	0.8901250
110.9999910	0.7444130
111.1000520	0.8736725
111.2000266	0.8452417
111.3001856	0.8033836
111.3999688	0.7916017
111.4999706	0.5840914
111.6000998	0.2440698
111.7000878	0.1844677
111.8001073	0.0029417
111.9000666	-0.1000309
112.0000356	0.0022468
112.1000338	0.0020038
112.2000809	0.1522274
112.3002918	0.2609256
112.4001856	0.2809391
112.5001295	0.2333409
112.6002732	0.4119015
112.7001019	0.4250433
112.8002204	0.4211808
112.9000545	0.2237258
113.0001239	0.1628777
113.1000443	0.1917271
113.2000668	0.3544429
113.3002084	0.1066006
113.3999987	0.0915462
113.5000417	0.0516635
113.6000115	-0.1003292
113.6999841	-0.2455906
113.8000218	-0.4186430
113.9000814	-0.4635467
114.0000786	-0.5475786
114.1000230	-0.5908003
114.2002570	-0.5805578
114.3003727	-0.4826673
114.4000801	-0.4865284
114.4999916	-0.6575578
114.6003807	-0.8620402
114.6999990	-1.1223655
114.8000911	-1.3170235
114.9000901	-1.1480980
114.9999767	-0.7602772
115.1000364	-0.7224911
115.2001477	-0.6379497
115.3000717	-0.5393840
115.4002081	-0.6031621
115.5000451	-0.5352281
115.6000599	-0.6360747
115.7000453	-0.6521735
115.8002409	-0.8668118
115.8999283	-1.0350548
116.0000648	-1.1167320
116.1000166	-1.1105571
116.2001439	-1.1329455
116.3001349	-1.0987550
116.4001014	-0.9486992
116.5000896	-0.8921260
116.5999900	-0.8435069
116.7002550	-0.9510409
116.8000758	-1.1012003
116.9000901	-1.1451350
117.0000223	-1.2459048
117.1000230	-1.3471591
117.2000643	-1.4348198
117.3001114	-1.5316937
117.4000817	-1.5787150
117.5000773	-1.5558476
117.6001277	-1.6330316
117.7000092	-1.6854155
117.8000466	-1.7414110
117.9001144	-1.7310997
118.0000366	-1.7548090
118.1000433	-1.7578608
118.2000387	-1.7362852
118.3001129	-1.6915920
118.4002678	-1.6218730
118.5001170	-1.6345016
118.6000166	-1.6670452
118.7000788	-1.6997633
118.8000614	-1.6898791
118.9000904	-1.7187016
119.0001702	-1.7309736
119.1000238	-1.6164460
119.2000259	-1.6654265
119.3000302	-1.5915978
119.3999867	-1.5917753
119.5000182	-1.5174307
119.6000842	-1.5079921
119.7000315	-1.5103056
119.8000937	-1.4460282
119.9003287	-1.4308548
120.0000837	-1.2867048
120.1000182	-1.4006246
120.2000046	-1.4023287
120.3000261	-1.2703522
120.4000745	-1.1874322
120.5000783	-1.0781438
120.6000538	-1.2254645
120.7000492	-0.7651608
120.8000276	-0.7702218
120.9000223	-0.7233799
121.0001564	-0.6287301
121.1000161	-0.5191038
121.1999104	-0.5146698
121.3000499	-0.3987761
121.4001073	-0.4344707
121.4999071	-0.2436024
121.6000696	-0.3157611
121.7000415	-0.1761225
121.8000445	-0.0559372
121.9000980	-0.0600670
121.9999813	0.0967295
122.0999956	0.1674686
122.2000932	0.1273243
122.3001165	0.3939197
122.4000187	0.3459809
122.4999926	0.6080279
122.5999857	0.7442689
122.7001103	0.7785546
122.8000251	0.8932673
122.9000806	1.0408219
123.0001498	1.0427837
123.1000686	1.3197676
123.2000174	1.4237342
123.3001096	1.5344471
123.4000973	1.7604915
123.5000000	1.7242271
123.6002086	1.8486437
123.7001582	1.7565113
123.8001582	1.4083496
123.9000384	1.0847892
124.0000120	1.1470058
124.1000023	1.4699625
124.2000758	1.6107718
124.3000742	1.7664008
124.4001075	1.5265595
124.5000602	1.3192635
124.6001431	1.2221208
124.7001060	1.2701008
124.8001211	1.3505145
124.8999519	1.5560155
124.9999662	1.6051029
125.1000996	1.7225261
125.1999967	1.7729225
125.3000870	1.5011175
125.4002757	1.3399886
125.5001917	1.2305295
125.6001981	1.2786304
125.6999928	1.4367713
125.8000737	1.5619318
125.9000842	1.5588633
126.0001797	1.4298164
126.1000218	1.4003909
126.2000507	1.3409100
126.3000781	1.3311898
126.4000806	1.4923388
126.4999990	1.5847059
126.6001190	1.5927186
126.6999903	1.3556310
126.8000440	1.0436193
126.9001001	0.9372762
127.0001213	1.0873057
127.1001431	1.2159348
127.2000481	1.1353230
127.3000965	1.2093475
127.4000294	1.0294285
127.5000893	0.8567141
127.6000589	0.6699588
127.7000402	0.5943641
127.8000773	0.7220501
127.8999964	0.7782160
128.0000612	0.7641069
128.1000655	0.4633905
128.2002716	0.3493030
128.3001096	0.3123098
128.4000172	0.2951277
128.5001096	0.3397616
128.6000538	0.3393705
128.6999693	0.1842437
128.8000384	-0.0629542
128.9000425	-0.2590891
129.0004718	-0.1761351
129.1001221	-0.2644946
129.2000617	-0.3655078
129.3000468	-0.3090861
129.3999721	-0.1955841
129.5001925	-0.3683668
129.6000632	-0.6430352
129.7000328	-0.6856260
129.7999951	-0.8175980
129.9001285	-0.7763495
130.0001236	-0.8974616
130.0999852	-0.9906895
130.2000558	-0.8874162
130.3001958	-0.8117452
130.3999992	-0.7197530
130.4999764	-0.4238195
130.6000294	-0.3021772
130.7000054	-0.6309488
130.8000364	-0.8093160
130.9000507	-0.9171146
131.0000241	-0.7633578
131.1000694	-0.6495646
131.2000468	-0.5654992
131.3001398	-0.4822062
131.4000433	-0.3664058
131.5001464	-0.3769659
131.5999923	-0.3923925
131.7000445	-0.3973408
131.8001708	-0.3373057
131.9002614	-0.2958061
132.0000609	-0.3719410
132.1001656	-0.5748471
132.2000381	-0.6820563
132.3000550	-0.7719165
132.4000545	-0.6817990
132.5000927	-0.4384241
132.6004006	-0.2443075
132.7000668	0.0333917
132.8001134	0.4556194
132.9000968	0.6206734
133.0001213	0.9111525
133.1000320	0.7964077
133.2000438	0.7735751
133.3001900	0.8391913
133.4001244	1.0340278
133.5000082	1.2421416
133.6000468	1.4632527
133.7001928	1.7924883
133.8000072	2.3287225
133.9000166	2.5509791
134.0000420	2.7381842
134.1001787	2.9792736
134.2000471	2.7033253
134.3000796	2.6630409
134.4000666	2.1415346
134.5001024	2.0153606
134.6000059	1.5365555
134.7001664	1.2748564
134.8003395	0.6296396
134.9000141	0.2695783
134.9999114	-0.4617648
135.1002179	-0.8797452
135.2001864	-1.1015521
135.3000822	-1.2709911
135.4001933	-1.4644200
135.5002230	-1.5377078
135.6000916	-1.3410660
135.7003569	-1.2839680
135.8001856	-1.4616491
135.9002409	-1.4286634
136.0001175	-1.0729755
136.1000530	-1.0634632
136.1999821	-1.2971588
136.3000397	-1.0227083
136.3999941	-0.9694026
136.5001004	-1.0741543
136.6000381	-1.2926624
136.7000440	-1.3106170
136.8000786	-1.3162079
136.9000366	-1.3606926
137.0001946	-1.3161091
137.1000156	-1.2148839
137.2000699	-1.4595680
137.3001925	-1.4431771
137.4001121	-1.5243311
137.4999844	-1.4919320
137.6001697	-1.4136424
137.7000251	-1.4119593
137.8000415	-1.3507837
137.9000494	-1.2928489
138.0000346	-1.2678666
138.1002071	-1.2398279
138.2001966	-1.2839166
138.3000655	-1.3444972
138.4000284	-1.2810043
138.5000468	-1.1852378
138.5999227	-1.1766182
138.7001057	-1.1474574
138.8001288	-1.1611233
138.9001672	-1.1653832
139.0000315	-1.1789763
139.1000376	-1.2248833