# Time	Velocity	Pitch	Yaw
-10.0138706	0.0000000	0.0000000	0.0000000
-9.9138324	0.0000000	0.0000000	0.0000000
-9.8139699	0.0000000	0.0000000	0.0000000
-9.7139379	0.0000000	0.0000000	0.0000000
-9.6139530	0.0000000	0.0000000	0.0000000
-9.5138294	0.0000000	0.0000000	0.0000000
-9.4139277	0.0000000	0.0000000	0.0000000
-9.3138588	0.0000000	0.0000000	0.0000000
-9.2139656	0.0000000	0.0000000	0.0000000
-9.1136707	0.0000000	0.0000000	0.0000000
-9.0138616	0.0000000	0.0000000	0.0000000
-8.9138255	0.0000000	0.0000000	0.0000000
-8.8138319	0.0000000	0.0000000	0.0000000
-8.7138250	0.0000000	0.0000000	0.0000000
-8.6138332	0.0000000	0.0000000	0.0000000
-8.5137964	0.0000000	0.0000000	0.0000000
-8.4138550	0.0000000	0.0000000	0.0000000
-8.3138291	0.0000000	0.0000000	0.0000000
-8.2138296	0.0000000	0.0000000	0.0000000
-8.1139484	0.0000000	0.0000000	0.0000000
-8.0139978	0.0000000	0.0000000	0.0000000
-7.9138824	0.0000000	0.0000000	0.0000000
-7.8138478	0.0000000	0.0000000	0.0000000
-7.7138033	0.0000000	0.0000000	0.0000000
-7.6139494	0.0000000	0.0000000	0.0000000
-7.5138191	0.0000000	0.0000000	0.0000000
-7.4139720	0.0000000	0.0000000	0.0000000
-7.3140211	0.0000000	0.0000000	0.0000000
-7.2138534	0.0000000	0.0000000	0.0000000
-7.1138755	0.0000000	0.0000000	0.0000000
-7.0139505	0.0000000	0.0000000	0.0000000
-6.9139395	0.0000000	0.0000000	0.0000000
-6.8138637	0.0000000	0.0000000	0.0000000
-6.7138414	0.0000000	0.0000000	0.0000000
-6.6139566	0.0000000	0.0000000	0.0000000
-6.5138588	0.0000000	0.0000000	0.0000000
-6.4138355	0.0000000	0.0000000	0.0000000
-6.3137759	0.0000000	0.0000000	0.0000000
-6.2138496	0.0000000	0.0000000	0.0000000
-6.1138519	0.0000000	0.0000000	0.0000000
-6.0138929	0.0000000	0.0000000	0.0000000
-5.9139945	0.0000000	0.0000000	0.0000000
-5.8138749	0.0000000	0.0000000	0.0000000
-5.7138125	0.0000000	0.0000000	0.0000000
-5.6138068	0.0000000	0.0000000	0.0000000
-5.5139507	0.0000000	0.0000000	0.0000000
-5.4138967	0.0000000	0.0000000	0.0000000
-5.3139597	0.0000000	0.0000000	0.0000000
-5.2137505	0.0000000	0.0000000	0.0000000
-5.1138217	0.0000000	0.0000000	0.0000000
-5.0138527	0.0000000	0.0000000	0.0000000
-4.9137080	0.0000000	0.0000000	0.0000000
-4.8139412	0.0000000	0.0000000	0.0000000
-4.7138665	0.0000000	0.0000000	0.0000000
-4.6138015	0.0000000	0.0000000	0.0000000
-4.5139840	0.0000000	0.0000000	0.0000000
-4.4138962	0.0000000	0.0000000	0.0000000
-4.3138481	0.0000000	0.0000000	0.0000000
-4.2139300	0.0000000	0.0000000	0.0000000
-4.1138780	0.0000000	0.0000000	0.0000000
-4.0139172	0.0000000	0.0000000	0.0000000
-3.9138396	0.0000000	0.0000000	0.0000000
-3.8138849	0.0000000	0.0000000	0.0000000
-3.7138030	0.0000000	0.0000000	0.0000000
-3.6139645	0.0000000	0.0000000	0.0000000
-3.5138772	0.0000000	0.0000000	0.0000000
-3.4138324	0.0000000	0.0000000	0.0000000
-3.3138606	0.0000000	0.0000000	0.0000000
-3.2138353	0.0000000	0.0000000	0.0000000
-3.1138808	0.0000000	0.0000000	0.0000000
-3.0138545	0.0000000	0.0000000	0.0000000
-2.9138563	0.0000000	0.0000000	0.0000000
-2.8138691	0.0000000	0.0000000	0.0000000
-2.7138240	0.0000000	0.0000000	0.0000000
-2.6137528	0.0000000	0.0000000	0.0000000
-2.5138396	0.0000000	0.0000000	0.0000000
-2.4139213	0.0000000	0.0000000	0.0000000
-2.3138171	0.0000000	0.0000000	0.0000000
-2.2137628	0.0000000	0.0000000	0.0000000
-2.1138330	0.0000000	0.0000000	0.0000000
-2.0138634	0.0000000	0.0000000	0.0000000
-1.9139133	0.0000000	0.0000000	0.0000000
-1.8139200	0.0000000	0.0000000	0.0000000
-1.7139241	0.0000000	0.0000000	0.0000000
-1.6139392	0.0000000	0.0000000	0.0000000
-1.5138212	0.0000000	0.0000000	0.0000000
-1.4138143	0.0000000	0.0000000	0.0000000
-1.3139049	0.0000000	0.0000000	0.0000000
-1.2139612	0.0000000	0.0000000	0.0000000
-1.1140017	0.0000000	0.0000000	0.0000000
-1.0137848	0.0000000	0.0000000	0.0000000
-0.9138560	0.0000000	0.0000000	0.0000000
-0.8138752	0.0000000	0.0000000	0.0000000
-0.7138806	0.0000000	0.0000000	0.0000000
-0.6137992	0.0000000	0.0000000	0.0000000
-0.5138312	0.0000000	0.0000000	0.0000000
-0.4138593	0.0000000	0.0000000	0.0000000
-0.3138281	0.0000000	0.0000000	0.0000000
-0.2139254	0.0000000	0.0000000	0.0000000
-0.1139520	0.0000000	0.0000000	0.0000000
-0.0138724	0.0000000	0.0000000	0.0000423
0.0862070	0.0000000	0.0000000	0.0017979
0.1861251	0.0000000	0.0000000	0.0060583
0.2861499	0.0000000	0.0000000	0.0127493
0.3861601	0.0000000	0.0000000	0.0217701
0.4862513	0.0000000	0.0000000	0.0330624
0.5861865	0.0000000	0.0000000	0.0464954
0.6860641	0.0000000	0.0000000	0.0619939
0.7861734	0.0000000	0.0000000	0.0795096
0.8862341	0.0000000	0.0000000	0.0989118
0.9861151	0.0000000	0.0000000	0.1201171
1.0860733	0.0000000	0.0000000	0.1430540
1.1861558	0.0000000	0.0000000	0.1676625
1.2860833	0.0000000	0.0000000	0.1937740
1.3860861	0.0000000	0.0000000	0.2213848
1.4862228	0.0000000	0.0000000	0.2503913
1.5860618	0.0000000	0.0000000	0.2806346
1.6862444	0.0000000	0.0000000	0.3121547
1.7862049	0.0000000	0.0000000	0.3447576
1.8862344	0.0000000	0.0000000	0.3783849
1.9862564	0.0000000	0.0000000	0.4129581
2.0861463	0.0000000	0.0000000	0.4483601
2.1860800	0.0000000	0.0000000	0.4845426
2.2861873	0.0000000	0.0000000	0.5214783
2.3861903	0.0000000	0.0000000	0.5589608
2.4862505	0.0000000	0.0000000	0.5969295
2.5862717	0.0000000	0.0000000	0.6353359
2.6861934	0.0000000	0.0000000	0.6740701
2.7861791	0.0000000	0.0000000	0.7130634
2.8861138	0.0000000	0.0000000	0.7521859
2.9861560	0.0000000	0.0000000	0.7913951
3.0861338	0.0000000	0.0000000	0.8306256
3.1861399	0.0000000	0.0000000	0.8697119
3.2862328	0.0000000	0.0000000	0.9086545
3.3862285	0.0000000	0.0000000	0.9472907
3.4861484	0.0000000	0.0000000	0.9855300
3.5861363	0.0000000	0.0000000	1.0233678
3.6862595	0.0000000	0.0000000	1.0606939
3.7860588	0.0000000	0.0000000	1.0973282
3.8861642	0.0000000	0.0000000	1.1332858
3.9862126	0.0000000	0.0000000	1.1684974
4.0862054	0.0000000	0.0000000	1.2027507
4.1862615	0.0000000	0.0000000	1.2360615
4.2861412	0.0000000	0.0000000	1.2682734
4.3861673	0.0000000	0.0000000	1.2993858
4.4861578	0.0000000	0.0000000	1.3292472
4.5861181	0.0000000	0.0000000	1.3577627
4.6862108	0.0000000	0.0000000	1.3849361
4.7861240	0.0000000	0.0000000	1.4105501
4.8862085	0.0000000	0.0000000	1.4346386
4.9862638	0.0000000	0.0000000	1.4570175
5.0861780	0.0000000	0.0000000	1.4776496
5.1862600	0.0000000	0.0000000	1.4964428
5.2860547	0.0000000	0.0000000	1.5132858
5.3862090	0.0000000	0.0000000	1.5281421
5.4862436	0.0000000	0.0000000	1.5408850
5.5860529	0.0000000	0.0000000	1.5514215
5.6861719	0.0000000	0.0000000	1.5596962
5.7861542	0.0000000	0.0000000	1.5656034
5.8861143	0.0000000	0.0000000	1.5690576
5.9862185	0.0000000	0.0000000	1.5699965
6.0862323	0.0000000	0.0000000	1.5699538
6.1861947	0.0000000	0.0000000	1.5699122
6.2861635	0.0000000	0.0000000	1.5698719
6.3861793	0.0000000	0.0000000	1.5698328
6.4861169	0.0000000	0.0000000	1.5697949
6.5861937	0.0000000	0.0000000	1.5697582
6.6860969	0.0000000	0.0000000	1.5697225
6.7862776	0.0000000	0.0000000	1.5696881
6.8862267	0.0000000	0.0000000	1.5696548
6.9862515	0.0000000	0.0000000	1.5696226
7.0862433	0.0000000	0.0000000	1.5695915
7.1860869	0.0000000	0.0000000	1.5695616
7.2862221	0.0000000	0.0000000	1.5695328
7.3862423	0.0000000	0.0000000	1.5695049
7.4862551	0.0000000	0.0000000	1.5694782
7.5862774	0.0000000	0.0000000	1.5694524
7.6862083	0.0000000	0.0000000	1.5694277
7.7862385	0.0000000	0.0000000	1.5694040
7.8861752	0.0000000	0.0000000	1.5693814
7.9862052	0.0000000	0.0000000	1.5693597
8.0862812	0.0000000	0.0000000	1.5693389
8.1862228	0.0000000	0.0000000	1.5693191
8.2861972	0.0000000	0.0000000	1.5693004
8.3862060	0.0000000	0.0000000	1.5692825
8.4863375	0.0000000	0.0000000	1.5692656
8.5862746	0.0000000	0.0000000	1.5692495
8.6862687	0.0000000	0.0000000	1.5692344
8.7862666	0.0000000	0.0000000	1.5692201
8.8862771	0.0000000	0.0000000	1.5692067
8.9862124	0.0000000	0.0000000	1.5691942
9.0861368	0.0000000	0.0000000	1.5691825
9.1861911	0.0000000	0.0000000	1.5691717
9.2861217	0.0000000	0.0000000	1.5691615
9.3861427	0.0000000	0.0000000	1.5691524
9.4862108	0.0000000	0.0000000	1.5691439
9.5862781	0.0000000	0.0000000	1.5691361
9.6861384	0.0000000	0.0000000	1.5691292
9.7862500	0.0000000	0.0000000	1.5691231
9.8861763	0.0000000	0.0000000	1.5691177
9.9861279	0.0000000	0.0000000	1.5691129
10.0861821	0.0000000	0.0000000	1.5691090
10.1860073	0.0000000	0.0000000	1.5691056
10.2862684	0.0000000	0.0000000	1.5691030
10.3862367	0.0000000	0.0000000	1.5691011
10.4863470	0.0000000	0.0000000	1.5690998
10.5862444	0.0000000	0.0000000	1.5690991
10.6862469	0.0000000	0.0000000	1.5690991
10.7861745	0.0000000	0.0000000	1.5690997
10.8861540	0.0000000	0.0000000	1.5691009
10.9860721	0.0000000	0.0000000	1.5691025
11.0861012	0.0000000	0.0000000	1.5691049
11.1861932	0.0000000	0.0000000	1.5691079
11.2861688	0.0000000	0.0000000	1.5691113
11.3862275	0.0000000	0.0000000	1.5691153
11.4861811	0.0000000	0.0000000	1.5691198
11.5862395	0.0000000	0.0000000	1.5691248
11.6862356	0.0000000	0.0000000	1.5691304
11.7862436	0.0000000	0.0000000	1.5691364
11.8862349	0.0000000	0.0000000	1.5691428
11.9862464	0.0000000	0.0000000	1.5691497
12.0861716	0.0000000	0.0000000	1.5691571
12.1862592	0.0000000	0.0000000	1.5691650
12.2862021	0.0000000	0.0000000	1.5691731
12.3862195	0.0000000	0.0000000	1.5691818
12.4861476	0.0000000	0.0000000	1.5691907
12.5862641	0.0000000	0.0000000	1.5692002
12.6862656	0.0000000	0.0000000	1.5692099
12.7863557	0.0000000	0.0000000	1.5692199
12.8863040	0.0000000	0.0000000	1.5692304
12.9862154	0.0000000	0.0000000	1.5692412
13.0862733	0.0000000	0.0000000	1.5692523
13.1861120	0.0000000	0.0000000	1.5692636
13.2860710	0.0000000	0.0000000	1.5692753
13.3861578	0.0000000	0.0000000	1.5692872
13.4862531	0.0000000	0.0000000	1.5692993
13.5862700	0.0000000	0.0000000	1.5693117
13.6861696	0.0000000	0.0000000	1.5693244
13.7862305	0.0000000	0.0000000	1.5693372
13.8862188	0.0000000	0.0000000	1.5693502
13.9861105	0.0000000	0.0000000	1.5693635
14.0861972	0.0000000	0.0000000	1.5693769
14.1861919	0.0000000	0.0000000	1.5693905
14.2861422	0.0000000	0.0000000	1.5694042
14.3862285	0.0000000	0.0000000	1.5694181
14.4861399	0.0000000	0.0000000	1.5694320
14.5860780	0.0000000	0.0000000	1.5694462
14.6862198	0.0000000	0.0000000	1.5694604
14.7862584	0.0000000	0.0000000	1.5694747
14.8863478	0.0000000	0.0000000	1.5694890
14.9861532	0.0000000	0.0000000	1.5695034
15.0861007	0.0000000	0.0000000	1.5695179
15.1861929	0.0000000	0.0000000	1.5695323
15.2861025	0.0000000	0.0000000	1.5695468
15.3861714	0.0000000	0.0000000	1.5695612
15.4861793	0.0000000	0.0000000	1.5695758
15.5862129	0.0000000	0.0000000	1.5695902
15.6861020	0.0000000	0.0000000	1.5696046
15.7862116	0.0000000	0.0000000	1.5696189
15.8861857	0.0000000	0.0000000	1.5696332
15.9860959	0.0000000	0.0000000	1.5696476
16.0862863	0.0000000	0.0000000	1.5696617
16.1861629	0.0000000	0.0000000	1.5696757
16.2861292	0.0000000	0.0000000	1.5696896
16.3861745	0.0000000	0.0000000	1.5697033
16.4861804	0.0000000	0.0000000	1.5697170
16.5862451	0.0000000	0.0000000	1.5697305
16.6861724	0.0000000	0.0000000	1.5697438
16.7861734	0.0000000	0.0000000	1.5697570
16.8862689	0.0000000	0.0000000	1.5697699
16.9860951	0.0000000	0.0000000	1.5697826
17.0861827	0.0000000	0.0000000	1.5697950
17.1861302	0.0000000	0.0000000	1.5698073
17.2861583	0.0000000	0.0000000	1.5698193
17.3861737	0.0000000	0.0000000	1.5698310
17.4862295	0.0000000	0.0000000	1.5698426
17.5861809	0.0000000	0.0000000	1.5698537
17.6862495	0.0000000	0.0000000	1.5698646
17.7863375	0.0000000	0.0000000	1.5698751
17.8861660	0.0000000	0.0000000	1.5698854
17.9861955	0.0000000	0.0000000	1.5698953
18.0862702	0.0000000	0.0000000	1.5699048
18.1862915	0.0000000	0.0000000	1.5699139
18.2861967	0.0000000	0.0000000	1.5699227
18.3862331	0.0000000	0.0000000	1.5699310
18.4862536	0.0000000	0.0000000	1.5699390
18.5862310	0.0000000	0.0000000	1.5699465
18.6861064	0.0000000	0.0000000	1.5699536
18.7862024	0.0000000	0.0000000	1.5699602
18.8860836	0.0000000	0.0000000	1.5699664
18.9860342	0.0000000	0.0000000	1.5699722
19.0862940	0.0000000	0.0000000	1.5699774
19.1863091	0.0000000	0.0000000	1.5699821
19.2861896	0.0000000	0.0000000	1.5699862
19.3861189	0.0000000	0.0000000	1.5699899
19.4860992	0.0000000	0.0000000	1.5699930
19.5860447	0.0000000	0.0000000	1.5699956
19.6863002	0.0000000	0.0000000	1.5699975
19.7862354	0.0000000	0.0000000	1.5699990
19.8860820	0.0000000	0.0000000	1.5699998
19.9862254	0.0000000	0.0000000	0.0000000
