# Time	x	y	z	roll	pitch	yaw	vx	vy	vz	
-9.4429263	0.0000474	-0.0001909	-0.1129389	-0.1993033	-0.1425085	0.0632317	0.0017848	-0.0064234	0.0122702
-9.3429450	-0.0002487	-0.0007947	-0.1113576	-0.2006975	-0.1442347	0.0716346	-0.0019153	-0.0133527	0.0285694
-9.2429332	-0.0011684	-0.0017397	-0.1135125	-0.2025972	-0.1483548	0.0786181	-0.0083251	-0.0160225	0.0318088
-9.1428982	-0.0025003	-0.0027262	-0.1120083	-0.2039960	-0.1535700	0.0844077	-0.0120154	-0.0142069	0.0260239
-9.0429325	-0.0039292	-0.0037211	-0.1123303	-0.2048703	-0.1585324	0.0893426	-0.0114793	-0.0119607	0.0168522
-8.9429522	-0.0052381	-0.0046045	-0.1007976	-0.2057538	-0.1615079	0.0940773	-0.0102604	-0.0101582	0.0100168
-8.8427571	-0.0064947	-0.0055888	-0.1031017	-0.2066043	-0.1636156	0.0983699	-0.0157484	-0.0094683	-0.0001419
-8.7428198	-0.0083034	-0.0068267	-0.1011920	-0.2071054	-0.1656069	0.1018363	-0.0228962	-0.0109637	-0.0064094
-8.6429499	-0.0104180	-0.0085232	-0.1077028	-0.2072476	-0.1673623	0.1051541	-0.0258255	-0.0133531	-0.0119414
-8.5429402	-0.0124937	-0.0102619	-0.1048188	-0.2073708	-0.1672367	0.1088301	-0.0233801	-0.0155062	-0.0108186
-8.4429737	-0.0141955	-0.0123568	-0.1094102	-0.2076086	-0.1655487	0.1133593	-0.0189057	-0.0164612	-0.0125005
-8.3429102	-0.0153704	-0.0144282	-0.1096622	-0.2076748	-0.1640658	0.1189945	-0.0116137	-0.0174811	-0.0116494
-8.2429606	-0.0156600	-0.0165020	-0.1141494	-0.2074053	-0.1617551	0.1254775	-0.0036111	-0.0158642	-0.0154234
-8.1427658	-0.0155726	-0.0179936	-0.1094303	-0.2067815	-0.1571278	0.1318859	0.0013725	-0.0131102	-0.0146369
-8.0429240	-0.0152486	-0.0194264	-0.1098361	-0.2060217	-0.1516652	0.1371193	-0.0022119	-0.0101732	-0.0168642
-7.9429373	-0.0155354	-0.0208697	-0.1115289	-0.2054231	-0.1487023	0.1406336	-0.0121048	-0.0094392	-0.0209876
-7.8429179	-0.0169002	-0.0219276	-0.1013515	-0.2053542	-0.1486060	0.1429795	-0.0171820	-0.0116915	-0.0156007
-7.7427912	-0.0175054	-0.0240225	-0.1111856	-0.2058799	-0.1498127	0.1453867	-0.0113298	-0.0135345	-0.0220401
-7.6429325	-0.0177061	-0.0259157	-0.1083675	-0.2066309	-0.1516598	0.1484445	0.0000640	-0.0189366	-0.0202067
-7.5428250	-0.0167348	-0.0282772	-0.1116064	-0.2071708	-0.1538794	0.1521111	0.0072089	-0.0230023	-0.0222818
-7.4428239	-0.0156137	-0.0308551	-0.1087833	-0.2072710	-0.1576952	0.1560949	0.0057682	-0.0272437	-0.0179573
-7.3429804	-0.0149573	-0.0338268	-0.1052359	-0.2065969	-0.1643286	0.1599439	-0.0021111	-0.0295044	-0.0138702
-7.2429161	-0.0148415	-0.0367742	-0.1064876	-0.2053841	-0.1707475	0.1631517	-0.0093071	-0.0280605	-0.0177179
-7.1429256	-0.0150103	-0.0401123	-0.1102746	-0.2035433	-0.1754118	0.1660215	-0.0116598	-0.0261509	-0.0266129
-7.0429537	-0.0152879	-0.0428754	-0.1031943	-0.2017010	-0.1762043	0.1689621	-0.0072674	-0.0265543	-0.0281847
-6.9428933	-0.0145682	-0.0460842	-0.1099917	-0.2009200	-0.1718169	0.1718406	-0.0006602	-0.0251262	-0.0374173
-6.8429658	-0.0134474	-0.0487440	-0.1075759	-0.2016551	-0.1632721	0.1749058	0.0063714	-0.0240523	-0.0342460
-6.7429637	-0.0116159	-0.0515308	-0.1103734	-0.2034840	-0.1533746	0.1782856	0.0114089	-0.0243398	-0.0296614
-6.6430185	-0.0094302	-0.0543392	-0.1138810	-0.2055035	-0.1448423	0.1819918	0.0131788	-0.0258776	-0.0233225
-6.5427615	-0.0082823	-0.0565035	-0.1054111	-0.2071749	-0.1395910	0.1859930	0.0134828	-0.0291397	-0.0099116
-6.4427533	-0.0067486	-0.0591130	-0.1011298	-0.2086486	-0.1385241	0.1899320	0.0135679	-0.0305815	-0.0020274
-6.3429105	-0.0037003	-0.0622503	-0.1114808	-0.2097484	-0.1417227	0.1933961	0.0161536	-0.0269769	-0.0131493
-6.2429527	-0.0012712	-0.0642573	-0.1088253	-0.2099299	-0.1461027	0.1966653	0.0273388	-0.0213509	-0.0220728
-6.1429135	0.0026865	-0.0656468	-0.1064076	-0.2092246	-0.1488201	0.2002161	0.0433269	-0.0151538	-0.0339325
-6.0427965	0.0076656	-0.0660733	-0.0978791	-0.2081321	-0.1506500	0.2042759	0.0553042	-0.0120377	-0.0363854
-5.9429297	0.0141550	-0.0673950	-0.1102779	-0.2070238	-0.1530722	0.2082497	0.0510341	-0.0123113	-0.0479132
-5.8429422	0.0188019	-0.0681040	-0.1034945	-0.2059125	-0.1576372	0.2113378	0.0351468	-0.0165909	-0.0392517
-5.7429286	0.0223987	-0.0701579	-0.1084235	-0.2047315	-0.1651055	0.2131146	0.0139859	-0.0200695	-0.0379345
-5.6429437	0.0242085	-0.0723431	-0.1079458	-0.2032414	-0.1731138	0.2140477	0.0027670	-0.0232778	-0.0354850
-5.5429688	0.0256728	-0.0751673	-0.1096957	-0.2015343	-0.1775203	0.2148800	0.0021547	-0.0257943	-0.0369429
-5.4429627	0.0276089	-0.0774886	-0.1041871	-0.2001654	-0.1769666	0.2163681	0.0120350	-0.0277782	-0.0334124
-5.3428966	0.0305666	-0.0809094	-0.1141500	-0.1997683	-0.1729308	0.2191280	0.0247320	-0.0283592	-0.0388919
-5.2429007	0.0348304	-0.0829876	-0.1095407	-0.2009529	-0.1652058	0.2232863	0.0403550	-0.0298569	-0.0281343
-5.1429622	0.0401636	-0.0851409	-0.1085356	-0.2037835	-0.1547213	0.2286371	0.0498047	-0.0298724	-0.0178614
-5.0429353	0.0460815	-0.0873824	-0.1114681	-0.2072653	-0.1458838	0.2341242	0.0493312	-0.0300090	-0.0133000
-4.9428521	0.0504261	-0.0891341	-0.1051632	-0.2099456	-0.1412429	0.2383774	0.0425310	-0.0308731	-0.0090566
-4.8429402	0.0551143	-0.0914573	-0.1054603	-0.2109737	-0.1399294	0.2406687	0.0346289	-0.0304244	-0.0197013
-4.7429412	0.0590478	-0.0939484	-0.1031943	-0.2101285	-0.1424577	0.2413269	0.0311538	-0.0284471	-0.0338306
-4.6429245	0.0632951	-0.0962950	-0.1049760	-0.2079627	-0.1486367	0.2417066	0.0370716	-0.0262463	-0.0506017
-4.5429069	0.0686406	-0.0984509	-0.1043167	-0.2050045	-0.1556495	0.2433690	0.0493901	-0.0248676	-0.0628251
-4.4429140	0.0756598	-0.1004036	-0.1063245	-0.2021843	-0.1610128	0.2474191	0.0622259	-0.0249137	-0.0702052
-4.3428303	0.0832972	-0.1021895	-0.1094585	-0.2003680	-0.1656549	0.2534635	0.0649814	-0.0270206	-0.0678445
-4.2429460	0.0908288	-0.1044676	-0.1136018	-0.1997338	-0.1712662	0.2594409	0.0502916	-0.0306379	-0.0598244
-4.1429517	0.0965344	-0.1067779	-0.1104629	-0.1998286	-0.1767762	0.2631356	0.0284354	-0.0361362	-0.0461624
-4.0427904	0.1001780	-0.1104946	-0.1141852	-0.2006819	-0.1790107	0.2639470	0.0132487	-0.0409185	-0.0409064
-3.9428047	0.1039742	-0.1136951	-0.1071031	-0.2025485	-0.1760763	0.2631933	0.0202112	-0.0446827	-0.0272371
-3.8429059	0.1087608	-0.1177465	-0.1093563	-0.2050660	-0.1666837	0.2631162	0.0447222	-0.0464158	-0.0236701
-3.7429184	0.1160717	-0.1208930	-0.1062615	-0.2075697	-0.1513932	0.2655786	0.0773092	-0.0478070	-0.0220670
-3.6426678	0.1253282	-0.1235072	-0.1052725	-0.2095671	-0.1354413	0.2707312	0.0951465	-0.0478961	-0.0257362
-3.5429302	0.1352003	-0.1259856	-0.1012317	-0.2103843	-0.1258385	0.2770473	0.0971015	-0.0455220	-0.0319908
-3.4429082	0.1472876	-0.1280973	-0.1081873	-0.2096081	-0.1249013	0.2828083	0.0844415	-0.0400726	-0.0474631
-3.3429440	0.1548840	-0.1303906	-0.1070260	-0.2076813	-0.1320566	0.2870631	0.0697806	-0.0359013	-0.0517107
-3.2429509	0.1618170	-0.1327745	-0.1066633	-0.2056249	-0.1458860	0.2895478	0.0558958	-0.0335959	-0.0525652
-3.1429146	0.1688764	-0.1355629	-0.1129032	-0.2039372	-0.1630213	0.2905051	0.0440872	-0.0340368	-0.0557946
-3.0429233	0.1745690	-0.1376941	-0.1083790	-0.2027239	-0.1795529	0.2906141	0.0395592	-0.0380433	-0.0519671
-2.9429212	0.1812695	-0.1406129	-0.1077278	-0.2022127	-0.1915539	0.2910316	0.0443528	-0.0434301	-0.0508675
-2.8429110	0.1896686	-0.1434368	-0.1062189	-0.2025275	-0.1944258	0.2928689	0.0622997	-0.0472813	-0.0456885
-2.7429417	0.1985060	-0.1462981	-0.1072714	-0.2037186	-0.1868072	0.2968549	0.0826161	-0.0486622	-0.0400782
-2.6429302	0.2084881	-0.1493285	-0.1115371	-0.2051905	-0.1729924	0.3019928	0.0944558	-0.0477452	-0.0380236
-2.5429274	0.2194991	-0.1512486	-0.1066628	-0.2059753	-0.1586332	0.3064027	0.0896523	-0.0461787	-0.0362345
-2.4429747	0.2294614	-0.1536302	-0.1052359	-0.2054560	-0.1461896	0.3091324	0.0750103	-0.0427310	-0.0434363
-2.3429420	0.2376337	-0.1560124	-0.1078580	-0.2040102	-0.1389892	0.3106079	0.0666654	-0.0424274	-0.0509432
-2.2429445	0.2454097	-0.1588203	-0.1076676	-0.2037040	-0.1356137	0.3125647	0.0714441	-0.0449957	-0.0517260
-2.1429235	0.2526857	-0.1616092	-0.1031943	-0.2056453	-0.1344009	0.3160353	0.0835280	-0.0484215	-0.0471003
-2.0428283	0.2625635	-0.1641736	-0.1057925	-0.2086587	-0.1367169	0.3203010	0.0870522	-0.0489276	-0.0487063
-1.9428132	0.2721107	-0.1670785	-0.1055856	-0.2105523	-0.1453399	0.3241221	0.0807360	-0.0485800	-0.0535786
-1.8429427	0.2807964	-0.1702028	-0.1032546	-0.2096799	-0.1593743	0.3268501	0.0709306	-0.0468931	-0.0600527
-1.7429284	0.2896009	-0.1731539	-0.1104673	-0.2063404	-0.1737438	0.3284212	0.0669801	-0.0434888	-0.0695894
-1.6428987	0.2994342	-0.1757423	-0.1126303	-0.2021570	-0.1843311	0.3295581	0.0727720	-0.0438738	-0.0692078
-1.5429688	0.3127393	-0.1760887	-0.1033514	-0.1993381	-0.1881592	0.3312877	0.0845043	-0.0477463	-0.0570160
-1.4429366	0.3227599	-0.1789768	-0.1079296	-0.1995091	-0.1839070	0.3341844	0.0935884	-0.0519479	-0.0526411
-1.3429327	0.3340597	-0.1820636	-0.1123713	-0.2026789	-0.1740978	0.3377561	0.0991979	-0.0550271	-0.0464581
-1.2429642	0.3466349	-0.1839451	-0.1083436	-0.2074549	-0.1616269	0.3414689	0.1015978	-0.0573761	-0.0363890
-1.1428447	0.3583360	-0.1864398	-0.1054911	-0.2115569	-0.1500518	0.3447845	0.0994744	-0.0555424	-0.0364308
-1.0429732	0.3697174	-0.1886034	-0.1073157	-0.2129887	-0.1431702	0.3476570	0.0983736	-0.0506960	-0.0495493
-0.9424694	0.3806786	-0.1910520	-0.1066432	-0.2111097	-0.1398155	0.3504402	0.1005498	-0.0448260	-0.0647468
-0.8429693	0.3916912	-0.1931301	-0.1070382	-0.2077305	-0.1387565	0.3534235	0.1047667	-0.0433274	-0.0758338
-0.7429471	0.4029328	-0.1949176	-0.1093621	-0.2047763	-0.1420986	0.3564896	0.1059351	-0.0459940	-0.0808369
-0.6429289	0.4138304	-0.1968989	-0.1078993	-0.2033335	-0.1490219	0.3592522	0.1051914	-0.0515663	-0.0779317
-0.5429427	0.4262583	-0.1990098	-0.1090243	-0.2036482	-0.1569525	0.3616477	0.1044871	-0.0555864	-0.0724909
-0.4429455	0.4383599	-0.2011005	-0.1096546	-0.2049845	-0.1652491	0.3637373	0.1031355	-0.0572416	-0.0678552
-0.3419118	0.4516074	-0.2031112	-0.1077826	-0.2058301	-0.1733091	0.3654938	0.1039436	-0.0579015	-0.0651919
-0.2429588	0.4657316	-0.2050384	-0.1076737	-0.2053928	-0.1785882	0.3671287	0.1105434	-0.0563894	-0.0679049
-0.1428511	0.4793924	-0.2067959	-0.1105488	-0.2042858	-0.1779819	0.3691649	0.1206828	-0.0540301	-0.0703600
-0.0427948	0.4952667	-0.2076830	-0.1109244	-0.2036189	-0.1718003	0.3721161	0.1316143	-0.0531040	-0.0681962
0.0570478	0.5112836	-0.2083735	-0.1115798	-0.2040830	-0.1635510	0.3761913	0.1360112	-0.0542690	-0.0621923
0.1570547	0.5261935	-0.2088600	-0.1042139	-0.2065218	-0.1513395	0.3799181	0.1271195	-0.0588810	-0.0415422
0.2572106	0.5368698	-0.2105008	-0.0968745	-0.2087566	-0.1378759	0.3779376	0.1040989	-0.0581702	-0.0173712
0.3570770	0.5517561	-0.2110918	-0.1044604	-0.2098833	-0.1273520	0.3744447	0.0890980	-0.0454966	-0.0301195
0.4570662	0.5621530	-0.2124440	-0.1062555	-0.2091461	-0.1248489	0.3712320	0.0838284	-0.0417041	-0.0447888
0.5571773	0.5699758	-0.2143615	-0.1059643	-0.2079267	-0.1303790	0.3682729	0.0865611	-0.0395747	-0.0527529
0.6570801	0.5786985	-0.2161205	-0.1058851	-0.2063554	-0.1417884	0.3648881	0.0897767	-0.0396442	-0.0569773
0.7570522	0.5878773	-0.2173864	-0.1042139	-0.2047581	-0.1548541	0.3621558	0.0969751	-0.0405983	-0.0593226
0.8571971	0.6001468	-0.2182051	-0.1061629	-0.2038251	-0.1659542	0.3614747	0.1113543	-0.0413492	-0.0642983
0.9570793	0.6144287	-0.2184330	-0.1080942	-0.2035190	-0.1737027	0.3632058	0.1268585	-0.0417962	-0.0671531
1.0570708	0.6301745	-0.2181794	-0.1095037	-0.2039902	-0.1769036	0.3663241	0.1372373	-0.0431835	-0.0650524
1.1570478	0.6457442	-0.2177798	-0.1099425	-0.2053691	-0.1761504	0.3690438	0.1353234	-0.0456521	-0.0549472
1.2570701	0.6627794	-0.2170651	-0.1057449	-0.2076329	-0.1737248	0.3698456	0.1287267	-0.0506250	-0.0410048
1.3570596	0.6786521	-0.2174162	-0.1011371	-0.2102408	-0.1699654	0.3683179	0.1233861	-0.0566703	-0.0318571
1.4570772	0.6916599	-0.2188646	-0.1032416	-0.2123249	-0.1648139	0.3655960	0.1221457	-0.0587532	-0.0358433
1.5570870	0.7054431	-0.2202433	-0.1090373	-0.2132353	-0.1589406	0.3632619	0.1228197	-0.0563783	-0.0488959
1.6570760	0.7196940	-0.2228293	-0.1014345	-0.2126422	-0.1529869	0.3615985	0.1237321	-0.0538583	-0.0565939
1.7570596	0.7339282	-0.2240120	-0.1065344	-0.2104149	-0.1487237	0.3604749	0.1211197	-0.0507380	-0.0728071
1.8570701	0.7465354	-0.2264125	-0.1049223	-0.2070180	-0.1477067	0.3595426	0.1186617	-0.0511435	-0.0785843
1.9570772	0.7615730	-0.2281922	-0.1111087	-0.2037527	-0.1489692	0.3588177	0.1206205	-0.0533636	-0.0834886
2.0572029	0.7749854	-0.2298096	-0.1130701	-0.2016613	-0.1507652	0.3586568	0.1270698	-0.0567482	-0.0787171
2.1572654	0.7876109	-0.2303871	-0.1074038	-0.2010956	-0.1528779	0.3592679	0.1331768	-0.0608407	-0.0660087
2.2571651	0.8023752	-0.2315374	-0.1056425	-0.2020605	-0.1556366	0.3603913	0.1353715	-0.0626823	-0.0577072
2.3570870	0.8190779	-0.2343793	-0.1134048	-0.2043164	-0.1584866	0.3611387	0.1339750	-0.0619399	-0.0583432
2.4570171	0.8347266	-0.2348849	-0.1052359	-0.2071303	-0.1608573	0.3607754	0.1336226	-0.0611012	-0.0498374
2.5571804	0.8493105	-0.2362323	-0.1055539	-0.2089074	-0.1614245	0.3594384	0.1357949	-0.0574278	-0.0523909
2.6570488	0.8651211	-0.2374758	-0.1094411	-0.2094654	-0.1600440	0.3572158	0.1391335	-0.0535650	-0.0620553
2.7570094	0.8817896	-0.2385535	-0.1031943	-0.2084820	-0.1575047	0.3547255	0.1420218	-0.0530542	-0.0637679
2.8570742	0.8974430	-0.2395383	-0.1070203	-0.2067919	-0.1558954	0.3532545	0.1408498	-0.0528496	-0.0700125
2.9570726	0.9126560	-0.2405858	-0.1016644	-0.2053586	-0.1558095	0.3529205	0.1375106	-0.0557643	-0.0662062
3.0572081	0.9280745	-0.2420162	-0.1031943	-0.2051184	-0.1578625	0.3537536	0.1351519	-0.0579264	-0.0664514
3.1571023	0.9435271	-0.2434659	-0.1028841	-0.2061779	-0.1605728	0.3551657	0.1358386	-0.0612220	-0.0654029
3.2572296	0.9597086	-0.2455358	-0.1068981	-0.2075961	-0.1618439	0.3560710	0.1358896	-0.0611447	-0.0694969
3.3570568	0.9750108	-0.2475718	-0.1124017	-0.2084687	-0.1606118	0.3555850	0.1351805	-0.0599821	-0.0751118
3.4570527	0.9913588	-0.2494578	-0.1124537	-0.2084758	-0.1574378	0.3535613	0.1349672	-0.0587283	-0.0761726
3.5570406	1.0071905	-0.2515043	-0.1103158	-0.2077089	-0.1540285	0.3505778	0.1352392	-0.0591605	-0.0723824
3.6571034	1.0219022	-0.2534300	-0.1094269	-0.2067850	-0.1518235	0.3477885	0.1376060	-0.0604945	-0.0667251
3.7570696	1.0369603	-0.2553575	-0.1068901	-0.2063205	-0.1512813	0.3461199	0.1442786	-0.0623708	-0.0573943
3.8570852	1.0541956	-0.2571048	-0.1094622	-0.2063728	-0.1517775	0.3459874	0.1511668	-0.0629691	-0.0577685
3.9571325	1.0688980	-0.2584787	-0.1032749	-0.2064215	-0.1526185	0.3472507	0.1566179	-0.0630383	-0.0567058
4.0570772	1.0868627	-0.2598254	-0.1049833	-0.2060187	-0.1532838	0.3488297	0.1585115	-0.0612474	-0.0639832
4.1570424	1.1048150	-0.2609719	-0.1069601	-0.2053087	-0.1537144	0.3500994	0.1567525	-0.0584612	-0.0688354
4.2570391	1.1219116	-0.2616944	-0.1056015	-0.2046718	-0.1544156	0.3501780	0.1539743	-0.0562868	-0.0681536
4.3570614	1.1383974	-0.2624742	-0.1073731	-0.2042566	-0.1560066	0.3488601	0.1506004	-0.0546226	-0.0686415
4.4570806	1.1557089	-0.2634064	-0.1103207	-0.2040030	-0.1580207	0.3464943	0.1495023	-0.0543281	-0.0691924
4.5570470	1.1730968	-0.2641787	-0.1118382	-0.2040031	-0.1589112	0.3438331	0.1526230	-0.0558326	-0.0697372
4.6571855	1.1902094	-0.2641977	-0.1083090	-0.2043268	-0.1578100	0.3417543	0.1587155	-0.0600294	-0.0673675
4.7570921	1.2088797	-0.2660111	-0.1144540	-0.2049246	-0.1556210	0.3405232	0.1640711	-0.0623095	-0.0732338
4.8572383	1.2267897	-0.2661919	-0.1035774	-0.2058410	-0.1540621	0.3402422	0.1684892	-0.0648837	-0.0630837
4.9572311	1.2459425	-0.2675827	-0.1061261	-0.2072291	-0.1538301	0.3406352	0.1664827	-0.0640114	-0.0591564
5.0570225	1.2647921	-0.2689673	-0.1072759	-0.2091601	-0.1550085	0.3411115	0.1605166	-0.0623505	-0.0536131
5.1570975	1.2813868	-0.2702088	-0.1085902	-0.2106914	-0.1569075	0.3410761	0.1531509	-0.0602173	-0.0524624
5.2570563	1.2985661	-0.2716415	-0.1090989	-0.2114976	-0.1593888	0.3402779	0.1472125	-0.0567836	-0.0551295
5.3570327	1.3160895	-0.2732794	-0.1052359	-0.2113119	-0.1608675	0.3388227	0.1454463	-0.0508521	-0.0590961
5.4570788	1.3326930	-0.2740396	-0.1038821	-0.2101915	-0.1601681	0.3373658	0.1491573	-0.0436783	-0.0673415
5.5571092	1.3502731	-0.2740239	-0.1051952	-0.2081169	-0.1576534	0.3361047	0.1556023	-0.0385679	-0.0778994
5.6570890	1.3676309	-0.2733937	-0.1031943	-0.2056746	-0.1539289	0.3351986	0.1623467	-0.0367119	-0.0811453
5.7570644	1.3862690	-0.2730042	-0.1105356	-0.2036611	-0.1498291	0.3344994	0.1658241	-0.0386659	-0.0817338
5.8570563	1.4025211	-0.2719910	-0.1092219	-0.2024847	-0.1465692	0.3337456	0.1662631	-0.0438656	-0.0693270
5.9570593	1.4191027	-0.2717104	-0.1103389	-0.2021547	-0.1457572	0.3326688	0.1645438	-0.0487714	-0.0573726
6.0570568	1.4370497	-0.2719002	-0.1117492	-0.2026588	-0.1475840	0.3314407	0.1635669	-0.0530787	-0.0487882
6.1570629	1.4542920	-0.2720655	-0.1106851	-0.2037927	-0.1511464	0.3305200	0.1662992	-0.0549842	-0.0417777
6.2571907	1.4725186	-0.2722901	-0.1103413	-0.2052883	-0.1551381	0.3300248	0.1704451	-0.0544364	-0.0389291
6.3570780	1.4902611	-0.2727187	-0.1134779	-0.2069490	-0.1582693	0.3297897	0.1704413	-0.0518263	-0.0413984
6.4570537	1.5090692	-0.2723896	-0.1104258	-0.2086147	-0.1607356	0.3292021	0.1669124	-0.0501114	-0.0402930
6.5570737	1.5288539	-0.2719953	-0.1031918	-0.2103267	-0.1631132	0.3278711	0.1629745	-0.0487752	-0.0379204
6.6570941	1.5457447	-0.2719117	-0.1034174	-0.2119456	-0.1644520	0.3258050	0.1617124	-0.0460050	-0.0460302
6.7571546	1.5659776	-0.2719201	-0.1000393	-0.2127221	-0.1633122	0.3236314	0.1654308	-0.0429206	-0.0580448
6.8570757	1.5851334	-0.2716399	-0.1016616	-0.2116066	-0.1601859	0.3220404	0.1701640	-0.0384565	-0.0776995
6.9574182	1.6039406	-0.2713628	-0.1029897	-0.2082813	-0.1566664	0.3214041	0.1730312	-0.0347187	-0.0914852
7.0570560	1.6234211	-0.2704241	-0.1100950	-0.2035206	-0.1537335	0.3214288	0.1730129	-0.0320904	-0.0986466
7.1572370	1.6410862	-0.2685405	-0.1091685	-0.1991881	-0.1515539	0.3217004	0.1735472	-0.0352828	-0.0875387
7.2571866	1.6582361	-0.2668785	-0.1107620	-0.1972177	-0.1496317	0.3216122	0.1768412	-0.0424377	-0.0707072
7.3570860	1.6776962	-0.2661947	-0.1127164	-0.1985721	-0.1473747	0.3211117	0.1835101	-0.0497882	-0.0532949
7.4572421	1.6947204	-0.2641072	-0.1082516	-0.2025922	-0.1450549	0.3202981	0.1913093	-0.0544541	-0.0362956
7.5575296	1.7151456	-0.2638431	-0.1090874	-0.2075370	-0.1444048	0.3194374	0.1933705	-0.0545381	-0.0340746
7.6570465	1.7372105	-0.2632881	-0.1093160	-0.2116167	-0.1472257	0.3184097	0.1899205	-0.0514891	-0.0389423
7.7570655	1.7546862	-0.2645334	-0.1053550	-0.2134992	-0.1523110	0.3176536	0.1826543	-0.0465013	-0.0456828
7.8570455	1.7739353	-0.2637268	-0.1070118	-0.2133724	-0.1600006	0.3165357	0.1737512	-0.0401240	-0.0557200
7.9571018	1.7960665	-0.2650492	-0.0991119	-0.2115403	-0.1678722	0.3145304	0.1684013	-0.0362086	-0.0565830
8.0572211	1.8144069	-0.2640267	-0.1007485	-0.2090353	-0.1718234	0.3120415	0.1709823	-0.0331987	-0.0644145
8.1570906	1.8334400	-0.2628540	-0.1038262	-0.2060162	-0.1720080	0.3097953	0.1782893	-0.0326490	-0.0732893
8.2570340	1.8516805	-0.2620835	-0.1082963	-0.2033058	-0.1693407	0.3086699	0.1837684	-0.0338622	-0.0798556
8.3570342	1.8744695	-0.2583373	-0.1072834	-0.2014994	-0.1652804	0.3090038	0.1851414	-0.0352521	-0.0793988
8.4572175	1.8946863	-0.2573681	-0.1115734	-0.2007720	-0.1606126	0.3102956	0.1828687	-0.0359400	-0.0820156
8.5572429	1.9147036	-0.2545288	-0.1116388	-0.2010993	-0.1558201	0.3116719	0.1808815	-0.0365135	-0.0807783
8.6570588	1.9325336	-0.2527187	-0.1125770	-0.2018347	-0.1508371	0.3121756	0.1814792	-0.0367379	-0.0791935
8.7570998	1.9507310	-0.2512502	-0.1135235	-0.2025601	-0.1456975	0.3112737	0.1842100	-0.0360528	-0.0750571
8.8572081	1.9657376	-0.2499742	-0.1106072	-0.2034772	-0.1408808	0.3091274	0.1906391	-0.0364144	-0.0662346
8.9572111	1.9785999	-0.2496487	-0.1069131	-0.2048232	-0.1380137	0.3066959	0.1992339	-0.0378107	-0.0559666
9.0570742	2.0021180	-0.2474506	-0.1101634	-0.2069932	-0.1389262	0.3049531	0.2062225	-0.0377658	-0.0498748
9.1570404	2.0220417	-0.2461641	-0.1093846	-0.2096444	-0.1438955	0.3043007	0.2095705	-0.0364086	-0.0449795
9.2570970	2.0400017	-0.2461068	-0.1054628	-0.2118848	-0.1521065	0.3045278	0.2074255	-0.0345762	-0.0478528
9.3570609	2.0613667	-0.2445313	-0.1051176	-0.2129273	-0.1622564	0.3050803	0.2006667	-0.0308033	-0.0586725
9.4570982	2.0812551	-0.2419985	-0.1097883	-0.2124485	-0.1723607	0.3051515	0.1915443	-0.0256507	-0.0754860
9.5570998	2.1086220	-0.2393529	-0.1078600	-0.2105319	-0.1803127	0.3044466	0.1863860	-0.0224063	-0.0871849
9.6570844	2.1383583	-0.2351548	-0.1073602	-0.2078629	-0.1836731	0.3031589	0.1866043	-0.0207324	-0.0953736
9.7572475	2.1696521	-0.2295191	-0.1072165	-0.2051030	-0.1801083	0.3019824	0.1936848	-0.0187567	-0.1009332
9.8570852	2.1995089	-0.2224056	-0.1064230	-0.2026698	-0.1699674	0.3015637	0.2066955	-0.0169317	-0.1007508
9.9571963	2.2218172	-0.2196377	-0.1131053	-0.2008767	-0.1557183	0.3020546	0.2187716	-0.0169228	-0.0983864
10.0570447	2.2436075	-0.2135252	-0.1112797	-0.1999426	-0.1410545	0.3029857	0.2254598	-0.0203190	-0.0852562
10.1570673	2.2552480	-0.2101286	-0.1078312	-0.1999537	-0.1311110	0.3037669	0.2218576	-0.0256591	-0.0684916
10.2570831	2.2731063	-0.2076338	-0.1082963	-0.2012033	-0.1286876	0.3038871	0.2146078	-0.0296598	-0.0569725
10.3571182	2.3068877	-0.2036357	-0.1159368	-0.2034496	-0.1328178	0.3033447	0.2104511	-0.0335709	-0.0577945
10.4570908	2.3146928	-0.2042320	-0.1100650	-0.2061719	-0.1412321	0.3027397	0.2080855	-0.0373634	-0.0535583
10.5570478	2.3305091	-0.2041073	-0.1062555	-0.2083212	-0.1523074	0.3023515	0.2084347	-0.0396151	-0.0555728
10.6570511	2.3522540	-0.2037817	-0.1015804	-0.2093272	-0.1641551	0.3020582	0.2070489	-0.0382227	-0.0620602
10.7570534	2.3719738	-0.2024989	-0.1068146	-0.2088669	-0.1760217	0.3013606	0.1985560	-0.0346017	-0.0777960
10.8570711	2.4067551	-0.1980433	-0.1011536	-0.2074222	-0.1857098	0.3000182	0.1919222	-0.0327617	-0.0809405
10.9570412	2.4344015	-0.1947426	-0.1021369	-0.2055745	-0.1919043	0.2988712	0.1912654	-0.0320733	-0.0830754
11.0570547	2.4522366	-0.1946326	-0.1071905	-0.2037958	-0.1924531	0.2991594	0.2017411	-0.0325067	-0.0833095
11.1570732	2.4780244	-0.1911142	-0.1083590	-0.2023771	-0.1858799	0.3011772	0.2176466	-0.0339593	-0.0763222
11.2571937	2.4995016	-0.1901235	-0.1118782	-0.2016484	-0.1733780	0.3040823	0.2302716	-0.0357462	-0.0655765
11.3570419	2.5280559	-0.1844756	-0.1075817	-0.2020858	-0.1573583	0.3064151	0.2367486	-0.0393554	-0.0509901
11.4570271	2.5530376	-0.1819844	-0.1083130	-0.2036225	-0.1409897	0.3072197	0.2369822	-0.0416798	-0.0449229
11.5572050	2.5761701	-0.1796059	-0.1084235	-0.2059246	-0.1277917	0.3066333	0.2360518	-0.0401230	-0.0448673
11.6570214	2.6052348	-0.1753461	-0.1110647	-0.2085831	-0.1198473	0.3054619	0.2345016	-0.0367274	-0.0524924
11.7570460	2.5992258	-0.1844772	-0.1034292	-0.2108627	-0.1193196	0.3045792	0.2287703	-0.0350493	-0.0553280
11.8570772	2.6321565	-0.1772706	-0.1094036	-0.2118818	-0.1286309	0.3042431	0.2205001	-0.0326892	-0.0712108
11.9570271	2.6343794	-0.1858600	-0.1044390	-0.2109886	-0.1471827	0.3040896	0.2043233	-0.0332426	-0.0785357
12.0570314	2.6492021	-0.1893187	-0.1008316	-0.2082413	-0.1701897	0.3035545	0.1919612	-0.0341426	-0.0864348
12.1570519	2.6762449	-0.1860407	-0.1008545	-0.2044146	-0.1902350	0.3028912	0.1931249	-0.0345065	-0.0949874
12.2570350	2.7027794	-0.1828198	-0.1042917	-0.2006458	-0.2004934	0.3027034	0.2089341	-0.0349309	-0.1009429
12.3570650	2.7338809	-0.1776960	-0.1070227	-0.1982295	-0.1978252	0.3039929	0.2330884	-0.0352268	-0.1002609
12.4571715	2.7523960	-0.1791057	-0.1129862	-0.1978531	-0.1833245	0.3069008	0.2504005	-0.0363257	-0.0969192
12.5570086	2.7871697	-0.1716459	-0.1133984	-0.1997095	-0.1617771	0.3105565	0.2588516	-0.0375863	-0.0847965
12.6570657	2.8100719	-0.1666275	-0.1108435	-0.2014587	-0.1439911	0.3131637	0.2503173	-0.0405377	-0.0713535
12.7570399	2.8418704	-0.1630587	-0.1167562	-0.2037935	-0.1312806	0.3144159	0.2328645	-0.0425428	-0.0699997
12.8570611	2.8258760	-0.1729447	-0.1052359	-0.2057646	-0.1268587	0.3139259	0.2133900	-0.0459472	-0.0592314
12.9571732	2.8486948	-0.1714390	-0.1078191	-0.2072732	-0.1298961	0.3125438	0.2055842	-0.0460132	-0.0618970
13.0570749	2.8579416	-0.1755799	-0.1052173	-0.2084321	-0.1381562	0.3111539	0.2062580	-0.0458078	-0.0589763
13.1570757	2.8725117	-0.1777876	-0.1031943	-0.2087670	-0.1493937	0.3106341	0.2123955	-0.0446047	-0.0603132
13.2570452	2.8957237	-0.1761448	-0.1058033	-0.2082944	-0.1607531	0.3111084	0.2215178	-0.0437650	-0.0695145
13.3572204	2.9252439	-0.1745008	-0.0993235	-0.2069383	-0.1703479	0.3120644	0.2281120	-0.0433678	-0.0755166
13.4570627	2.9547223	-0.1713626	-0.0980977	-0.2046184	-0.1767215	0.3131961	0.2328408	-0.0431687	-0.0875582
13.5570980	2.9781582	-0.1705170	-0.1034790	-0.2020197	-0.1788464	0.3146186	0.2380772	-0.0436378	-0.1021411
13.6571072	3.0158937	-0.1627304	-0.1027521	-0.2000877	-0.1760736	0.3167243	0.2463729	-0.0465043	-0.1045572
13.7570775	3.0385723	-0.1633514	-0.1094904	-0.1992067	-0.1694766	0.3193235	0.2496844	-0.0499231	-0.1072159
13.8572058	3.0710531	-0.1550569	-0.1065671	-0.1991615	-0.1615278	0.3218645	0.2452589	-0.0551190	-0.0953010
13.9571825	3.0972353	-0.1530990	-0.1082069	-0.2000494	-0.1543820	0.3232720	0.2326048	-0.0612446	-0.0809199
14.0571738	3.1214577	-0.1532681	-0.1114687	-0.2020075	-0.1498882	0.3232544	0.2187994	-0.0657416	-0.0674005
14.1570967	3.1449149	-0.1537057	-0.1127311	-0.2044445	-0.1493613	0.3222212	0.2105120	-0.0678553	-0.0551588
14.2570898	3.1637963	-0.1554439	-0.1093248	-0.2070342	-0.1521061	0.3211099	0.2138612	-0.0660666	-0.0449834
14.3570870	3.1819220	-0.1579655	-0.1031160	-0.2093759	-0.1563597	0.3207825	0.2255348	-0.0624173	-0.0399786
14.4573975	3.2073134	-0.1530504	-0.1092324	-0.2114187	-0.1598420	0.3216779	0.2414215	-0.0570129	-0.0502811
14.5571159	3.2348175	-0.1537533	-0.1053712	-0.2130414	-0.1614836	0.3237686	0.2528574	-0.0536916	-0.0592593
14.6570580	3.2650711	-0.1559478	-0.1004052	-0.2134108	-0.1618420	0.3262730	0.2542087	-0.0512216	-0.0731405
14.7570708	3.2904624	-0.1538395	-0.1036168	-0.2114192	-0.1622324	0.3281194	0.2442186	-0.0479172	-0.0946627
14.8572091	3.3181306	-0.1538225	-0.1057164	-0.2070419	-0.1640840	0.3288839	0.2301037	-0.0474881	-0.1107522
14.9570644	3.3462328	-0.1530933	-0.1054388	-0.2013172	-0.1676066	0.3286866	0.2170954	-0.0507603	-0.1158248
15.0571935	3.3691696	-0.1530277	-0.1119946	-0.1960638	-0.1712469	0.3283649	0.2092222	-0.0551585	-0.1140894
15.1570230	3.4001634	-0.1417212	-0.1103380	-0.1928323	-0.1740021	0.3291992	0.2106140	-0.0617842	-0.0960700
15.2572083	3.4262282	-0.1347116	-0.1098859	-0.1930028	-0.1747497	0.3313388	0.2185427	-0.0676625	-0.0781705
15.3570893	3.4467573	-0.1435172	-0.1161480	-0.1958684	-0.1718116	0.3345474	0.2254282	-0.0722627	-0.0653729
15.4570570	3.4765796	-0.1342482	-0.1093160	-0.2008259	-0.1648792	0.3371614	0.2318828	-0.0746460	-0.0477766
15.5572022	3.5008142	-0.1337848	-0.1070180	-0.2057127	-0.1558885	0.3380195	0.2349652	-0.0752287	-0.0420691
15.6574259	3.5269563	-0.1331568	-0.1068574	-0.2103578	-0.1454000	0.3372266	0.2386353	-0.0734374	-0.0450605
15.7570015	3.5512632	-0.1334146	-0.1062555	-0.2132865	-0.1373314	0.3359755	0.2435588	-0.0705816	-0.0544879
15.8571776	3.5651470	-0.1424394	-0.1025710	-0.2140271	-0.1349801	0.3358782	0.2460964	-0.0661692	-0.0663096
15.9570796	3.5879677	-0.1446842	-0.1037606	-0.2129876	-0.1398785	0.3377568	0.2432958	-0.0610762	-0.0830247
16.0570337	3.5951076	-0.1580700	-0.0992008	-0.2104672	-0.1514295	0.3410279	0.2341249	-0.0592465	-0.0931473
16.1570895	3.6214216	-0.1561681	-0.1058153	-0.2073165	-0.1655599	0.3444814	0.2221846	-0.0565105	-0.1061979
16.2570481	3.6495755	-0.1543816	-0.1073789	-0.2042222	-0.1783563	0.3470944	0.2165428	-0.0563524	-0.1095712
16.3569979	3.6801973	-0.1504256	-0.1095487	-0.2014005	-0.1862413	0.3484053	0.2180607	-0.0559473	-0.1132233
16.4570097	3.7121753	-0.1461189	-0.1131525	-0.1992707	-0.1864204	0.3484577	0.2257621	-0.0593649	-0.1120203
16.5571034	3.7594374	-0.1317441	-0.1109178	-0.1981378	-0.1789996	0.3475900	0.2353607	-0.0651880	-0.1011948
16.6570586	3.7884213	-0.1284252	-0.1126072	-0.1980397	-0.1675561	0.3462790	0.2393242	-0.0721239	-0.0898085
16.7570570	3.8148485	-0.1305594	-0.1173245	-0.1990400	-0.1558403	0.3453602	0.2375843	-0.0795286	-0.0783132
16.8570726	3.8270992	-0.1269484	-0.1056613	-0.2010289	-0.1468136	0.3456307	0.2362919	-0.0848450	-0.0582871
16.9571474	3.8627367	-0.1267451	-0.1114417	-0.2037323	-0.1416378	0.3475855	0.2388128	-0.0844272	-0.0607835
17.0571768	3.8763258	-0.1313226	-0.1075737	-0.2068333	-0.1403484	0.3510544	0.2418771	-0.0831486	-0.0615562
17.1570522	3.8983696	-0.1337657	-0.1072341	-0.2096922	-0.1425844	0.3550194	0.2409903	-0.0799033	-0.0715539
17.2571446	3.9105838	-0.1421239	-0.1035593	-0.2113042	-0.1473206	0.3579599	0.2346691	-0.0760555	-0.0835198
17.3570532	3.9324734	-0.1470601	-0.1039582	-0.2109324	-0.1543039	0.3593970	0.2277708	-0.0717048	-0.1007729
17.4570675	3.9545978	-0.1554934	-0.1005773	-0.2087443	-0.1623987	0.3596105	0.2225236	-0.0702497	-0.1111350
17.5576637	3.9816746	-0.1577978	-0.1010930	-0.2054368	-0.1702775	0.3595062	0.2203790	-0.0719463	-0.1173334
17.6571666	4.0148513	-0.1555969	-0.1027508	-0.2020347	-0.1768271	0.3597993	0.2238127	-0.0760561	-0.1173003
17.7570294	4.0342702	-0.1613894	-0.1123780	-0.1992596	-0.1809324	0.3608964	0.2272814	-0.0824399	-0.1158453
17.8575846	4.0679681	-0.1560207	-0.1132026	-0.1978321	-0.1821193	0.3622647	0.2289334	-0.0879093	-0.1036086
17.9574546	4.0966236	-0.1559867	-0.1159059	-0.1971713	-0.1804092	0.3639622	0.2267619	-0.0929259	-0.0906442
18.0570580	4.1221638	-0.1584762	-0.1185049	-0.1975343	-0.1763333	0.3658880	0.2238828	-0.0968475	-0.0785875
18.1570591	4.1504517	-0.1561607	-0.1165774	-0.1991921	-0.1709271	0.3681675	0.2235313	-0.0990757	-0.0639439
18.2572211	4.1781567	-0.1551106	-0.1132307	-0.2021974	-0.1640909	0.3708143	0.2266303	-0.0991374	-0.0541802
18.3571011	4.2037021	-0.1563213	-0.1103270	-0.2062599	-0.1561923	0.3735909	0.2314532	-0.0989236	-0.0523094
18.4570575	4.2235813	-0.1611643	-0.1063174	-0.2101635	-0.1490226	0.3758911	0.2308178	-0.0953827	-0.0608940